# vtk DataFile Version 2.0
tmp/0.000.00-10.000.000.001.00105.vtk
ASCII
DATASET UNSTRUCTURED_GRID
POINTS 5000 float
0.25 0.25 0
1.25 0.25 0
2.25 0.25 0
3.25 0.25 0
4.25 0.25 0
5.25 0.25 0
6.25 0.25 0
7.25 0.25 0
8.25 0.25 0
9.25 0.25 0
10.25 0.25 0
11.25 0.25 0
12.25 0.25 0
13.25 0.25 0
14.25 0.25 0
15.25 0.25 0
16.25 0.25 0
17.25 0.25 0
18.25 0.25 0
19.25 0.25 0
20.25 0.25 0
21.25 0.25 0
22.25 0.25 0
23.25 0.25 0
24.25 0.25 0
25.25 0.25 0
26.25 0.25 0
27.25 0.25 0
28.25 0.25 0
29.25 0.25 0
30.25 0.25 0
31.25 0.25 0
32.25 0.25 0
33.25 0.25 0
34.25 0.25 0
35.25 0.25 0
36.25 0.25 0
37.25 0.25 0
38.25 0.25 0
39.25 0.25 0
40.25 0.25 0
41.25 0.25 0
42.25 0.25 0
43.25 0.25 0
44.25 0.25 0
45.25 0.25 0
46.25 0.25 0
47.25 0.25 0
48.25 0.25 0
49.25 0.25 0
0.75 0.75 0
1.75 0.75 0
2.75 0.75 0
3.75 0.75 0
4.75 0.75 0
5.75 0.75 0
6.75 0.75 0
7.75 0.75 0
8.75 0.75 0
9.75 0.75 0
10.75 0.75 0
11.75 0.75 0
12.75 0.75 0
13.75 0.75 0
14.75 0.75 0
15.75 0.75 0
16.75 0.75 0
17.75 0.75 0
18.75 0.75 0
19.75 0.75 0
20.75 0.75 0
21.75 0.75 0
22.75 0.75 0
23.75 0.75 0
24.75 0.75 0
25.75 0.75 0
26.75 0.75 0
27.75 0.75 0
28.75 0.75 0
29.75 0.75 0
30.75 0.75 0
31.75 0.75 0
32.75 0.75 0
33.75 0.75 0
34.75 0.75 0
35.75 0.75 0
36.75 0.75 0
37.75 0.75 0
38.75 0.75 0
39.75 0.75 0
40.75 0.75 0
41.75 0.75 0
42.75 0.75 0
43.75 0.75 0
44.75 0.75 0
45.75 0.75 0
46.75 0.75 0
47.75 0.75 0
48.75 0.75 0
49.75 0.75 0
0.25 1.25 0
1.25 1.25 0
2.25 1.25 0
3.25 1.25 0
4.25 1.25 0
5.25 1.25 0
6.25 1.25 0
7.25 1.25 0
8.25 1.25 0
9.25 1.25 0
10.25 1.25 0
11.25 1.25 0
12.25 1.25 0
13.25 1.25 0
14.25 1.25 0
15.25 1.25 0
16.25 1.25 0
17.25 1.25 0
18.25 1.25 0
19.25 1.25 0
20.25 1.25 0
21.25 1.25 0
22.25 1.25 0
23.25 1.25 0
24.25 1.25 0
25.25 1.25 0
26.25 1.25 0
27.25 1.25 0
28.25 1.25 0
29.25 1.25 0
30.25 1.25 0
31.25 1.25 0
32.25 1.25 0
33.25 1.25 0
34.25 1.25 0
35.25 1.25 0
36.25 1.25 0
37.25 1.25 0
38.25 1.25 0
39.25 1.25 0
40.25 1.25 0
41.25 1.25 0
42.25 1.25 0
43.25 1.25 0
44.25 1.25 0
45.25 1.25 0
46.25 1.25 0
47.25 1.25 0
48.25 1.25 0
49.25 1.25 0
0.75 1.75 0
1.75 1.75 0
2.75 1.75 0
3.75 1.75 0
4.75 1.75 0
5.75 1.75 0
6.75 1.75 0
7.75 1.75 0
8.75 1.75 0
9.75 1.75 0
10.75 1.75 0
11.75 1.75 0
12.75 1.75 0
13.75 1.75 0
14.75 1.75 0
15.75 1.75 0
16.75 1.75 0
17.75 1.75 0
18.75 1.75 0
19.75 1.75 0
20.75 1.75 0
21.75 1.75 0
22.75 1.75 0
23.75 1.75 0
24.75 1.75 0
25.75 1.75 0
26.75 1.75 0
27.75 1.75 0
28.75 1.75 0
29.75 1.75 0
30.75 1.75 0
31.75 1.75 0
32.75 1.75 0
33.75 1.75 0
34.75 1.75 0
35.75 1.75 0
36.75 1.75 0
37.75 1.75 0
38.75 1.75 0
39.75 1.75 0
40.75 1.75 0
41.75 1.75 0
42.75 1.75 0
43.75 1.75 0
44.75 1.75 0
45.75 1.75 0
46.75 1.75 0
47.75 1.75 0
48.75 1.75 0
49.75 1.75 0
0.25 2.25 0
1.25 2.25 0
2.25 2.25 0
3.25 2.25 0
4.25 2.25 0
5.25 2.25 0
6.25 2.25 0
7.25 2.25 0
8.25 2.25 0
9.25 2.25 0
10.25 2.25 0
11.25 2.25 0
12.25 2.25 0
13.25 2.25 0
14.25 2.25 0
15.25 2.25 0
16.25 2.25 0
17.25 2.25 0
18.25 2.25 0
19.25 2.25 0
20.25 2.25 0
21.25 2.25 0
22.25 2.25 0
23.25 2.25 0
24.25 2.25 0
25.25 2.25 0
26.25 2.25 0
27.25 2.25 0
28.25 2.25 0
29.25 2.25 0
30.25 2.25 0
31.25 2.25 0
32.25 2.25 0
33.25 2.25 0
34.25 2.25 0
35.25 2.25 0
36.25 2.25 0
37.25 2.25 0
38.25 2.25 0
39.25 2.25 0
40.25 2.25 0
41.25 2.25 0
42.25 2.25 0
43.25 2.25 0
44.25 2.25 0
45.25 2.25 0
46.25 2.25 0
47.25 2.25 0
48.25 2.25 0
49.25 2.25 0
0.75 2.75 0
1.75 2.75 0
2.75 2.75 0
3.75 2.75 0
4.75 2.75 0
5.75 2.75 0
6.75 2.75 0
7.75 2.75 0
8.75 2.75 0
9.75 2.75 0
10.75 2.75 0
11.75 2.75 0
12.75 2.75 0
13.75 2.75 0
14.75 2.75 0
15.75 2.75 0
16.75 2.75 0
17.75 2.75 0
18.75 2.75 0
19.75 2.75 0
20.75 2.75 0
21.75 2.75 0
22.75 2.75 0
23.75 2.75 0
24.75 2.75 0
25.75 2.75 0
26.75 2.75 0
27.75 2.75 0
28.75 2.75 0
29.75 2.75 0
30.75 2.75 0
31.75 2.75 0
32.75 2.75 0
33.75 2.75 0
34.75 2.75 0
35.75 2.75 0
36.75 2.75 0
37.75 2.75 0
38.75 2.75 0
39.75 2.75 0
40.75 2.75 0
41.75 2.75 0
42.75 2.75 0
43.75 2.75 0
44.75 2.75 0
45.75 2.75 0
46.75 2.75 0
47.75 2.75 0
48.75 2.75 0
49.75 2.75 0
0.25 3.25 0
1.25 3.25 0
2.25 3.25 0
3.25 3.25 0
4.25 3.25 0
5.25 3.25 0
6.25 3.25 0
7.25 3.25 0
8.25 3.25 0
9.25 3.25 0
10.25 3.25 0
11.25 3.25 0
12.25 3.25 0
13.25 3.25 0
14.25 3.25 0
15.25 3.25 0
16.25 3.25 0
17.25 3.25 0
18.25 3.25 0
19.25 3.25 0
20.25 3.25 0
21.25 3.25 0
22.25 3.25 0
23.25 3.25 0
24.25 3.25 0
25.25 3.25 0
26.25 3.25 0
27.25 3.25 0
28.25 3.25 0
29.25 3.25 0
30.25 3.25 0
31.25 3.25 0
32.25 3.25 0
33.25 3.25 0
34.25 3.25 0
35.25 3.25 0
36.25 3.25 0
37.25 3.25 0
38.25 3.25 0
39.25 3.25 0
40.25 3.25 0
41.25 3.25 0
42.25 3.25 0
43.25 3.25 0
44.25 3.25 0
45.25 3.25 0
46.25 3.25 0
47.25 3.25 0
48.25 3.25 0
49.25 3.25 0
0.75 3.75 0
1.75 3.75 0
2.75 3.75 0
3.75 3.75 0
4.75 3.75 0
5.75 3.75 0
6.75 3.75 0
7.75 3.75 0
8.75 3.75 0
9.75 3.75 0
10.75 3.75 0
11.75 3.75 0
12.75 3.75 0
13.75 3.75 0
14.75 3.75 0
15.75 3.75 0
16.75 3.75 0
17.75 3.75 0
18.75 3.75 0
19.75 3.75 0
20.75 3.75 0
21.75 3.75 0
22.75 3.75 0
23.75 3.75 0
24.75 3.75 0
25.75 3.75 0
26.75 3.75 0
27.75 3.75 0
28.75 3.75 0
29.75 3.75 0
30.75 3.75 0
31.75 3.75 0
32.75 3.75 0
33.75 3.75 0
34.75 3.75 0
35.75 3.75 0
36.75 3.75 0
37.75 3.75 0
38.75 3.75 0
39.75 3.75 0
40.75 3.75 0
41.75 3.75 0
42.75 3.75 0
43.75 3.75 0
44.75 3.75 0
45.75 3.75 0
46.75 3.75 0
47.75 3.75 0
48.75 3.75 0
49.75 3.75 0
0.25 4.25 0
1.25 4.25 0
2.25 4.25 0
3.25 4.25 0
4.25 4.25 0
5.25 4.25 0
6.25 4.25 0
7.25 4.25 0
8.25 4.25 0
9.25 4.25 0
10.25 4.25 0
11.25 4.25 0
12.25 4.25 0
13.25 4.25 0
14.25 4.25 0
15.25 4.25 0
16.25 4.25 0
17.25 4.25 0
18.25 4.25 0
19.25 4.25 0
20.25 4.25 0
21.25 4.25 0
22.25 4.25 0
23.25 4.25 0
24.25 4.25 0
25.25 4.25 0
26.25 4.25 0
27.25 4.25 0
28.25 4.25 0
29.25 4.25 0
30.25 4.25 0
31.25 4.25 0
32.25 4.25 0
33.25 4.25 0
34.25 4.25 0
35.25 4.25 0
36.25 4.25 0
37.25 4.25 0
38.25 4.25 0
39.25 4.25 0
40.25 4.25 0
41.25 4.25 0
42.25 4.25 0
43.25 4.25 0
44.25 4.25 0
45.25 4.25 0
46.25 4.25 0
47.25 4.25 0
48.25 4.25 0
49.25 4.25 0
0.75 4.75 0
1.75 4.75 0
2.75 4.75 0
3.75 4.75 0
4.75 4.75 0
5.75 4.75 0
6.75 4.75 0
7.75 4.75 0
8.75 4.75 0
9.75 4.75 0
10.75 4.75 0
11.75 4.75 0
12.75 4.75 0
13.75 4.75 0
14.75 4.75 0
15.75 4.75 0
16.75 4.75 0
17.75 4.75 0
18.75 4.75 0
19.75 4.75 0
20.75 4.75 0
21.75 4.75 0
22.75 4.75 0
23.75 4.75 0
24.75 4.75 0
25.75 4.75 0
26.75 4.75 0
27.75 4.75 0
28.75 4.75 0
29.75 4.75 0
30.75 4.75 0
31.75 4.75 0
32.75 4.75 0
33.75 4.75 0
34.75 4.75 0
35.75 4.75 0
36.75 4.75 0
37.75 4.75 0
38.75 4.75 0
39.75 4.75 0
40.75 4.75 0
41.75 4.75 0
42.75 4.75 0
43.75 4.75 0
44.75 4.75 0
45.75 4.75 0
46.75 4.75 0
47.75 4.75 0
48.75 4.75 0
49.75 4.75 0
0.25 5.25 0
1.25 5.25 0
2.25 5.25 0
3.25 5.25 0
4.25 5.25 0
5.25 5.25 0
6.25 5.25 0
7.25 5.25 0
8.25 5.25 0
9.25 5.25 0
10.25 5.25 0
11.25 5.25 0
12.25 5.25 0
13.25 5.25 0
14.25 5.25 0
15.25 5.25 0
16.25 5.25 0
17.25 5.25 0
18.25 5.25 0
19.25 5.25 0
20.25 5.25 0
21.25 5.25 0
22.25 5.25 0
23.25 5.25 0
24.25 5.25 0
25.25 5.25 0
26.25 5.25 0
27.25 5.25 0
28.25 5.25 0
29.25 5.25 0
30.25 5.25 0
31.25 5.25 0
32.25 5.25 0
33.25 5.25 0
34.25 5.25 0
35.25 5.25 0
36.25 5.25 0
37.25 5.25 0
38.25 5.25 0
39.25 5.25 0
40.25 5.25 0
41.25 5.25 0
42.25 5.25 0
43.25 5.25 0
44.25 5.25 0
45.25 5.25 0
46.25 5.25 0
47.25 5.25 0
48.25 5.25 0
49.25 5.25 0
0.75 5.75 0
1.75 5.75 0
2.75 5.75 0
3.75 5.75 0
4.75 5.75 0
5.75 5.75 0
6.75 5.75 0
7.75 5.75 0
8.75 5.75 0
9.75 5.75 0
10.75 5.75 0
11.75 5.75 0
12.75 5.75 0
13.75 5.75 0
14.75 5.75 0
15.75 5.75 0
16.75 5.75 0
17.75 5.75 0
18.75 5.75 0
19.75 5.75 0
20.75 5.75 0
21.75 5.75 0
22.75 5.75 0
23.75 5.75 0
24.75 5.75 0
25.75 5.75 0
26.75 5.75 0
27.75 5.75 0
28.75 5.75 0
29.75 5.75 0
30.75 5.75 0
31.75 5.75 0
32.75 5.75 0
33.75 5.75 0
34.75 5.75 0
35.75 5.75 0
36.75 5.75 0
37.75 5.75 0
38.75 5.75 0
39.75 5.75 0
40.75 5.75 0
41.75 5.75 0
42.75 5.75 0
43.75 5.75 0
44.75 5.75 0
45.75 5.75 0
46.75 5.75 0
47.75 5.75 0
48.75 5.75 0
49.75 5.75 0
0.25 6.25 0
1.25 6.25 0
2.25 6.25 0
3.25 6.25 0
4.25 6.25 0
5.25 6.25 0
6.25 6.25 0
7.25 6.25 0
8.25 6.25 0
9.25 6.25 0
10.25 6.25 0
11.25 6.25 0
12.25 6.25 0
13.25 6.25 0
14.25 6.25 0
15.25 6.25 0
16.25 6.25 0
17.25 6.25 0
18.25 6.25 0
19.25 6.25 0
20.25 6.25 0
21.25 6.25 0
22.25 6.25 0
23.25 6.25 0
24.25 6.25 0
25.25 6.25 0
26.25 6.25 0
27.25 6.25 0
28.25 6.25 0
29.25 6.25 0
30.25 6.25 0
31.25 6.25 0
32.25 6.25 0
33.25 6.25 0
34.25 6.25 0
35.25 6.25 0
36.25 6.25 0
37.25 6.25 0
38.25 6.25 0
39.25 6.25 0
40.25 6.25 0
41.25 6.25 0
42.25 6.25 0
43.25 6.25 0
44.25 6.25 0
45.25 6.25 0
46.25 6.25 0
47.25 6.25 0
48.25 6.25 0
49.25 6.25 0
0.75 6.75 0
1.75 6.75 0
2.75 6.75 0
3.75 6.75 0
4.75 6.75 0
5.75 6.75 0
6.75 6.75 0
7.75 6.75 0
8.75 6.75 0
9.75 6.75 0
10.75 6.75 0
11.75 6.75 0
12.75 6.75 0
13.75 6.75 0
14.75 6.75 0
15.75 6.75 0
16.75 6.75 0
17.75 6.75 0
18.75 6.75 0
19.75 6.75 0
20.75 6.75 0
21.75 6.75 0
22.75 6.75 0
23.75 6.75 0
24.75 6.75 0
25.75 6.75 0
26.75 6.75 0
27.75 6.75 0
28.75 6.75 0
29.75 6.75 0
30.75 6.75 0
31.75 6.75 0
32.75 6.75 0
33.75 6.75 0
34.75 6.75 0
35.75 6.75 0
36.75 6.75 0
37.75 6.75 0
38.75 6.75 0
39.75 6.75 0
40.75 6.75 0
41.75 6.75 0
42.75 6.75 0
43.75 6.75 0
44.75 6.75 0
45.75 6.75 0
46.75 6.75 0
47.75 6.75 0
48.75 6.75 0
49.75 6.75 0
0.25 7.25 0
1.25 7.25 0
2.25 7.25 0
3.25 7.25 0
4.25 7.25 0
5.25 7.25 0
6.25 7.25 0
7.25 7.25 0
8.25 7.25 0
9.25 7.25 0
10.25 7.25 0
11.25 7.25 0
12.25 7.25 0
13.25 7.25 0
14.25 7.25 0
15.25 7.25 0
16.25 7.25 0
17.25 7.25 0
18.25 7.25 0
19.25 7.25 0
20.25 7.25 0
21.25 7.25 0
22.25 7.25 0
23.25 7.25 0
24.25 7.25 0
25.25 7.25 0
26.25 7.25 0
27.25 7.25 0
28.25 7.25 0
29.25 7.25 0
30.25 7.25 0
31.25 7.25 0
32.25 7.25 0
33.25 7.25 0
34.25 7.25 0
35.25 7.25 0
36.25 7.25 0
37.25 7.25 0
38.25 7.25 0
39.25 7.25 0
40.25 7.25 0
41.25 7.25 0
42.25 7.25 0
43.25 7.25 0
44.25 7.25 0
45.25 7.25 0
46.25 7.25 0
47.25 7.25 0
48.25 7.25 0
49.25 7.25 0
0.75 7.75 0
1.75 7.75 0
2.75 7.75 0
3.75 7.75 0
4.75 7.75 0
5.75 7.75 0
6.75 7.75 0
7.75 7.75 0
8.75 7.75 0
9.75 7.75 0
10.75 7.75 0
11.75 7.75 0
12.75 7.75 0
13.75 7.75 0
14.75 7.75 0
15.75 7.75 0
16.75 7.75 0
17.75 7.75 0
18.75 7.75 0
19.75 7.75 0
20.75 7.75 0
21.75 7.75 0
[...]
POINT_DATA 5000
VECTORS velocity float
0.525761 0.525761 0.668693
0.584096 0.458647 0.669683
0.661091 0.364927 0.655581
0.742863 0.249024 0.621403
0.817745 0.112922 0.564395
0.873562 -0.0377233 0.485249
0.900731 -0.194416 0.388441
0.894279 -0.347857 0.281532
0.854287 -0.489918 0.173707
0.785117 -0.614901 0.0740841
0.693966 -0.719942 -0.00971707
0.589262 -0.804685 -0.0724683
0.479253 -0.87055 -0.11162
0.370996 -0.9199 -0.127065
0.269811 -0.955334 -0.120579
0.179137 -0.979214 -0.0951358
0.100673 -0.993438 -0.0542761
0.0346962 -0.999397 -0.00161614
-0.0195773 -0.998038 0.0594767
-0.0636327 -0.98998 0.126057
-0.0993484 -0.975627 0.195658
-0.128751 -0.955259 0.266277
-0.153835 -0.929101 0.336313
-0.17643 -0.897363 0.404491
-0.198124 -0.860263 0.469782
-0.220204 -0.818037 0.531343
-0.243635 -0.770946 0.58846
-0.269044 -0.719272 0.640517
-0.296725 -0.663332 0.686982
-0.326652 -0.603477 0.727402
-0.35851 -0.540107 0.761416
-0.391735 -0.473679 0.788779
-0.425571 -0.404724 0.809375
-0.459147 -0.333847 0.823244
-0.491554 -0.261735 0.830584
-0.521942 -0.18914 0.831746
-0.549602 -0.116862 0.827213
-0.574042 -0.0457048 0.817549
-0.595038 0.0235624 0.803352
-0.612658 0.0902635 0.785177
-0.627246 0.153864 0.763472
-0.639382 0.214014 0.738505
-0.649803 0.270591 0.710307
-0.659303 0.323731 0.678615
-0.668589 0.373879 0.642809
-0.678081 0.421893 0.60184
-0.687547 0.469235 0.554164
-0.695405 0.518293 0.49778
-0.697421 0.572665 0.430882
-0.685389 0.636201 0.354245
0.522424 0.522424 0.673904
0.599569 0.438015 0.669821
0.688419 0.330655 0.645559
0.775948 0.202543 0.597396
0.849029 0.0572589 0.525235
0.896375 -0.0982777 0.432265
0.910652 -0.255158 0.324972
0.889547 -0.404605 0.212132
0.835526 -0.539665 0.103233
0.754676 -0.656061 0.00690824
0.655152 -0.752225 -0.0702346
0.545645 -0.828758 -0.124223
0.434133 -0.887632 -0.153747
0.327064 -0.931403 -0.159741
0.228988 -0.96261 -0.144731
0.142552 -0.983415 -0.112134
0.0687393 -0.995471 -0.0656673
0.00723109 -0.999934 -0.00891817
-0.0432038 -0.997556 0.0549091
-0.0843537 -0.988802 0.123104
-0.118268 -0.973954 0.193456
-0.147032 -0.953193 0.264204
-0.172603 -0.926653 0.333951
-0.196703 -0.894453 0.401575
-0.220749 -0.85672 0.466155
-0.245815 -0.813599 0.526908
-0.272609 -0.765263 0.583143
-0.301477 -0.711926 0.63425
-0.332412 -0.653854 0.67969
-0.365083 -0.591384 0.719012
-0.398889 -0.524945 0.751878
-0.433013 -0.455067 0.778083
-0.466512 -0.382398 0.797583
-0.498408 -0.307701 0.810499
-0.527784 -0.231847 0.817123
-0.553884 -0.155785 0.81789
-0.576188 -0.0804973 0.813343
-0.594477 -0.00694581 0.804082
-0.608849 0.0639984 0.790701
-0.61971 0.131619 0.773716
-0.627729 0.195415 0.753504
-0.633759 0.255138 0.730243
-0.638731 0.310832 0.703851
-0.643536 0.362862 0.673938
-0.648855 0.41197 0.63974
-0.654913 0.459401 0.600034
-0.661017 0.507144 0.553048
-0.664637 0.558316 0.496528
-0.659674 0.617348 0.428616
-0.636201 0.685389 0.354245
0.458647 0.584096 0.669683
0.522531 0.522531 0.673737
0.613877 0.429643 0.66224
0.71213 0.313552 0.628137
0.803256 0.177441 0.568589
0.874046 0.0263272 0.485129
0.914431 -0.1319 0.382646
0.919042 -0.288176 0.268915
0.887626 -0.434294 0.153328
0.824336 -0.564286 0.0452995
0.736361 -0.674943 -0.0471552
0.632348 -0.765588 -0.118368
0.520956 -0.837408 -0.165389
0.409763 -0.892645 -0.187828
0.304617 -0.933874 -0.187319
0.209403 -0.963494 -0.166822
0.12614 -0.983464 -0.12995
0.0552807 -0.995227 -0.0804161
-0.00390279 -0.999757 -0.0216744
-0.0529237 -0.99766 0.0432801
-0.0937347 -0.989281 0.111972
-0.128448 -0.974795 0.182415
-0.159124 -0.954281 0.253036
-0.187627 -0.92776 0.322579
-0.215523 -0.895234 0.390007
-0.244022 -0.856706 0.454432
-0.273936 -0.812206 0.515053
-0.305671 -0.761817 0.571139
-0.339231 -0.705704 0.622016
-0.374249 -0.644143 0.667096
-0.410038 -0.577556 0.705902
-0.445675 -0.506523 0.738111
-0.480102 -0.43179 0.763583
-0.512238 -0.354264 0.782374
-0.541099 -0.274984 0.79473
-0.565898 -0.19508 0.801064
-0.586135 -0.115719 0.801907
-0.601643 -0.0380391 0.797859
-0.612605 0.0369252 0.789526
-0.619538 0.108314 0.777458
-0.62323 0.175501 0.762092
-0.624659 0.238145 0.743699
-0.624889 0.296208 0.722339
-0.624951 0.349981 0.697818
-0.625703 0.400106 0.669635
-0.62766 0.447643 0.636913
-0.630692 0.494243 0.59829
-0.633422 0.542488 0.5518
-0.631851 0.596351 0.495106
-0.617348 0.659674 0.428616
0.438015 0.599569 0.669821
0.526784 0.526784 0.667082
0.631451 0.427053 0.647221
0.737392 0.304166 0.603105
0.830353 0.161999 0.533169
0.897837 0.0068254 0.440275
0.931317 -0.152784 0.330615
0.927323 -0.307865 0.212818
0.887352 -0.45088 0.0965101
0.816851 -0.576775 -0.00922529
0.723744 -0.683204 -0.0970928
0.616892 -0.770126 -0.162327
0.504768 -0.839079 -0.202871
0.394501 -0.892398 -0.219079
0.291363 -0.932573 -0.213107
0.198648 -0.961831 -0.188205
0.117843 -0.981932 -0.148064
0.0489687 -0.994144 -0.0963305
-0.00901917 -0.999301 -0.0362869
-0.057837 -0.997896 0.0292872
-0.0995387 -0.990182 0.0981401
-0.136251 -0.976241 0.168491
-0.169977 -0.956043 0.238932
-0.202459 -0.929487 0.308323
-0.235084 -0.896432 0.375692
-0.26882 -0.856736 0.440159
-0.304181 -0.810298 0.50089
-0.341219 -0.757116 0.557086
-0.37954 -0.697343 0.607999
-0.418365 -0.631338 0.65298
-0.456628 -0.559704 0.691536
-0.493104 -0.483296 0.723377
-0.526556 -0.403192 0.748449
-0.555884 -0.320645 0.766929
-0.580245 -0.237013 0.779192
-0.599145 -0.153677 0.785754
-0.612474 -0.0719663 0.787208
-0.620519 0.00692526 0.78416
-0.623922 0.0820051 0.777172
-0.623608 0.152542 0.76671
-0.620695 0.218108 0.753105
-0.616384 0.278597 0.736515
-0.611838 0.334233 0.716898
-0.608061 0.385572 0.693971
-0.605765 0.433529 0.667159
-0.605173 0.479474 0.635507
-0.605648 0.525486 0.597541
-0.604772 0.574805 0.551226
-0.596351 0.631851 0.495106
-0.572665 0.697421 0.430882
0.364927 0.661091 0.655581
0.429643 0.613877 0.66224
0.535222 0.535222 0.65351
0.651391 0.429863 0.625226
0.763164 0.301384 0.571619
0.856474 0.154525 0.492519
0.919968 -0.00340698 0.391979
0.946809 -0.163486 0.277175
0.935277 -0.317078 0.157223
0.888294 -0.457378 0.0416904
0.812239 -0.580146 -0.0608212
0.715468 -0.683696 -0.143751
0.606869 -0.768402 -0.203145
0.494641 -0.835961 -0.237696
0.385464 -0.888675 -0.248343
0.284091 -0.928885 -0.237625
0.193309 -0.958624 -0.208975
0.11417 -0.979477 -0.166101
0.0463525 -0.992565 -0.112545
-0.0114231 -0.998612 -0.0514224
-0.0610114 -0.998029 0.0146871
-0.104519 -0.990992 0.0837287
-0.144053 -0.977498 0.154096
-0.181534 -0.957411 0.224521
-0.218565 -0.930493 0.293959
-0.256329 -0.896452 0.361483
-0.295525 -0.854991 0.426211
-0.336329 -0.805888 0.487265
-0.378387 -0.749089 0.543773
-0.420866 -0.684799 0.594914
-0.462558 -0.613559 0.639989
-0.502037 -0.536272 0.678506
-0.537856 -0.454176 0.710236
-0.568733 -0.368758 0.735228
-0.593711 -0.281645 0.753779
-0.612257 -0.194482 0.766367
-0.624299 -0.108822 0.773568
-0.630215 -0.0260438 0.775983
-0.630773 0.0527219 0.774174
-0.627044 0.126639 0.768621
-0.620296 0.1952 0.75969
-0.611875 0.258236 0.747611
-0.603083 0.315914 0.732454
-0.59506 0.36872 0.714107
-0.588675 0.417456 0.692237
-0.584383 0.463281 0.666234
-0.582006 0.507866 0.635091
-0.580157 0.553752 0.597307
-0.574805 0.604772 0.551226
-0.558316 0.664637 0.496528
0.330655 0.688419 0.645559
0.427053 0.631451 0.647221
0.547557 0.547557 0.632743
0.673239 0.437288 0.596263
0.788964 0.304066 0.533929
0.88128 0.153573 0.446945
0.940252 -0.00612957 0.340424
0.960747 -0.16606 0.222236
0.94259 -0.318091 0.101693
0.889819 -0.456159 -0.0118917
0.809446 -0.576709 -0.110472
0.710048 -0.67854 -0.18819
0.600413 -0.762255 -0.24181
0.488424 -0.829572 -0.27065
0.380332 -0.882671 -0.276116
0.280425 -0.923702 -0.261029
0.191059 -0.954508 -0.228935
0.112924 -0.976508 -0.183522
0.0454329 -0.990704 -0.128221
-0.0128699 -0.997738 -0.0659858
-0.0639293 -0.997954 0.000779209
-0.109871 -0.991464 0.0701906
-0.15276 -0.978183 0.140792
-0.194418 -0.957861 0.211435
-0.236289 -0.930118 0.281154
-0.27933 -0.894501 0.34906
-0.323931 -0.850563 0.41426
-0.369878 -0.797986 0.475824
-0.41636 -0.736724 0.532805
-0.462072 -0.667131 0.584316
-0.505382 -0.590049 0.629628
-0.544579 -0.506797 0.668275
-0.578124 -0.419079 0.700104
-0.604861 -0.328819 0.725273
-0.624152 -0.237975 0.744179
-0.635914 -0.14839 0.75736
-0.640592 -0.0616692 0.765401
-0.639072 0.0208837 0.768863
-0.632576 0.0983125 0.768233
-0.622532 0.170025 0.763901
-0.610445 0.235793 0.756147
-0.597769 0.295733 0.745128
-0.585788 0.350276 0.730862
-0.575514 0.400144 0.71321
-0.56758 0.446343 0.691832
-0.5621 0.49025 0.666107
-0.558332 0.533843 0.635041
-0.553752 0.580157 0.597307
-0.542488 0.633422 0.5518
-0.518293 0.695405 0.49778
0.249024 0.742863 0.621403
0.313552 0.71213 0.628137
0.429863 0.651391 0.625226
0.563173 0.563173 0.604708
0.696252 0.448529 0.560406
0.814092 0.311302 0.490251
0.904227 0.158083 0.396715
0.958288 -0.00260673 0.285792
0.972768 -0.161983 0.165785
0.948793 -0.312534 0.0459784
0.89124 -0.448896 -0.0646847
0.807524 -0.568074 -0.158738
0.706286 -0.669184 -0.230983
0.596132 -0.75292 -0.278814
0.484611 -0.820915 -0.302078
0.377562 -0.875162 -0.302555
0.278857 -0.917602 -0.283277
0.19048 -0.949887 -0.247855
0.112827 -0.973292 -0.199934
0.0450975 -0.988719 -0.142833
-0.0142899 -0.996744 -0.0793584
-0.0673368 -0.997661 -0.0117541
-0.116164 -0.991521 0.0582477
-0.162778 -0.97815 0.129325
-0.208888 -0.957179 0.200437
-0.255755 -0.928072 0.270689
-0.304073 -0.890208 0.339218
-0.353871 -0.843006 0.405113
-0.404478 -0.786098 0.467383
-0.454576 -0.719535 0.525006
-0.502365 -0.643944 0.577031
-0.545846 -0.560601 0.622719
-0.583144 -0.471346 0.661647
-0.612805 -0.37839 0.693751
-0.633991 -0.284053 0.719284
-0.646538 -0.190535 0.738705
-0.650918 -0.0997451 0.752567
-0.648122 -0.0132114 0.761422
-0.639521 0.067953 0.765764
-0.626716 0.143054 0.766004
-0.611388 0.211797 0.762461
-0.595161 0.274255 0.75536
-0.579478 0.330818 0.744825
-0.565497 0.382153 0.730871
-0.554005 0.429166 0.713369
-0.545325 0.473027 0.692001
-0.539121 0.515309 0.666187
-0.533843 0.558332 0.635041
-0.525486 0.605648 0.597541
-0.507144 0.661017 0.553048
0.202543 0.775948 0.597396
0.304166 0.737392 0.603105
0.437288 0.673239 0.596263
0.58124 0.58124 0.569492
0.719549 0.46267 0.517867
0.83776 0.322138 0.440892
0.924682 0.167002 0.34216
0.973565 0.00596232 0.22833
0.982379 -0.152598 0.107914
0.953308 -0.301834 -0.00998875
0.891829 -0.437013 -0.116877
0.805582 -0.555571 -0.205861
0.703156 -0.656808 -0.272352
0.592916 -0.741391 -0.314309
0.482059 -0.810788 -0.332027
0.376032 -0.866767 -0.32759
0.278329 -0.911046 -0.304186
0.190616 -0.945092 -0.265457
0.113042 -0.970052 -0.21499
0.044646 -0.986749 -0.155993
-0.016247 -0.995706 -0.0911325
-0.0716689 -0.997175 -0.0225056
-0.12372 -0.991141 0.0482979
-0.174334 -0.977337 0.120083
-0.225089 -0.955251 0.191912
-0.277033 -0.924179 0.262955
-0.330542 -0.883331 0.332368
-0.385209 -0.832015 0.399205
-0.439833 -0.76989 0.462402
-0.492536 -0.697225 0.520851
-0.541048 -0.61507 0.573546
-0.583103 -0.525267 0.619747
-0.616841 -0.430246 0.659087
-0.641105 -0.332706 0.691586
-0.655553 -0.235274 0.717563
-0.660622 -0.140251 0.737501
-0.657382 -0.0494731 0.751932
-0.647353 0.0357319 0.761352
-0.63232 0.114534 0.766194
-0.61416 0.186557 0.766814
-0.59469 0.25183 0.763496
-0.575528 0.310713 0.756456
-0.557994 0.363839 0.745831
-0.543024 0.412054 0.731667
-0.531109 0.456395 0.713881
-0.522182 0.498158 0.692217
-0.515309 0.539121 0.666187
-0.507866 0.582006 0.635091
-0.494243 0.630692 0.59829
-0.469235 0.687547 0.554164
0.112922 0.817745 0.564395
0.177441 0.803256 0.568589
0.301384 0.763164 0.571619
0.448529 0.696252 0.560407
0.600796 0.600796 0.527341
0.742183 0.478736 0.469017
0.859153 0.335593 0.386309
0.941994 0.179279 0.283737
0.985544 0.0184148 0.168414
0.989063 -0.139163 0.0488722
0.955564 -0.287283 -0.0660787
0.890927 -0.421763 -0.168418
0.802875 -0.54035 -0.251822
0.699849 -0.642415 -0.312273
0.589925 -0.728506 -0.348234
0.479934 -0.799867 -0.360383
0.374942 -0.858011 -0.351049
0.278104 -0.904425 -0.323534
0.190809 -0.940404 -0.281484
0.113009 -0.966982 -0.22842
0.0436169 -0.984918 -0.167436
-0.0191062 -0.994696 -0.101064
-0.0772055 -0.996525 -0.0312581
-0.132749 -0.990321 0.0405327
-0.187586 -0.975699 0.113243
-0.243135 -0.951985 0.186035
-0.300186 -0.918286 0.258144
-0.358719 -0.873647 0.328728
-0.417799 -0.817315 0.396788
-0.475611 -0.749082 0.461161
-0.529696 -0.669593 0.520642
-0.577384 -0.580484 0.574165
-0.616312 -0.484273 0.620998
-0.644864 -0.383995 0.660832
-0.662389 -0.282756 0.693751
-0.669199 -0.183348 0.720108
-0.666398 -0.0880197 0.740382
-0.655648 0.0016016 0.755065
-0.638932 0.0844934 0.764609
-0.618347 0.160171 0.76941
-0.595926 0.228607 0.769812
-0.573488 0.290139 0.766114
-0.552532 0.345384 0.758563
-0.534151 0.395158 0.74735
-0.518986 0.440424 0.732584
-0.507169 0.482298 0.714261
-0.498158 0.522182 0.692217
-0.49025 0.5621 0.666107
-0.479474 0.605173 0.635507
-0.459401 0.654913 0.600034
0.0572589 0.849029 0.525235
0.161999 0.830353 0.533169
0.304066 0.788964 0.533929
0.46267 0.719549 0.517867
0.620839 0.620839 0.478662
0.763225 0.495753 0.414387
0.877511 0.350692 0.327093
0.955573 0.193878 0.222017
0.993741 0.0336273 0.106528
0.992363 -0.122861 -0.0109619
0.95508 -0.270066 -0.12201
0.88801 -0.404272 -0.219096
0.798836 -0.52343 -0.296449
0.695774 -0.626887 -0.350588
0.58656 -0.715 -0.380425
0.477645 -0.78874 -0.386969
0.373731 -0.849346 -0.372741
0.277667 -0.898075 -0.341119
0.190607 -0.93606 -0.295737
0.112347 -0.964241 -0.240038
0.0417026 -0.983326 -0.177004
-0.0231072 -0.99377 -0.109029
-0.0841306 -0.995733 -0.0379209
-0.143395 -0.989046 0.0350208
-0.202649 -0.973181 0.108866
-0.263117 -0.947271 0.182885
-0.325254 -0.910212 0.256366
-0.388544 -0.860902 0.328452
-0.451414 -0.79861 0.398055
-0.511364 -0.723407 0.463884
-0.565377 -0.636501 0.52461
-0.610527 -0.540273 0.579104
-0.644591 -0.437979 0.626639
-0.666443 -0.333206 0.666954
-0.676138 -0.22933 0.700175
-0.674741 -0.129135 0.726669
-0.664034 -0.034665 0.746898
-0.646213 0.0527828 0.761329
-0.623622 0.132565 0.770404
-0.598541 0.204576 0.774531
-0.57302 0.269131 0.774091
-0.548757 0.326843 0.769441
-0.52702 0.378526 0.7609
-0.508598 0.425107 0.74874
-0.493784 0.467602 0.733161
-0.482298 0.507169 0.714261
-0.473027 0.545325 0.692001
-0.463281 0.584383 0.666234
-0.447643 0.62766 0.636913
-0.421893 0.678081 0.60184
-0.0377233 0.873562 0.485249
0.0263272 0.874046 0.485129
0.154525 0.856474 0.492519
0.311302 0.814092 0.490251
0.478736 0.742183 0.469017
0.640395 0.640395 0.424014
0.781838 0.51279 0.35465
0.892193 0.366498 0.26395
0.964948 0.209801 0.157666
0.997786 0.0505305 0.0432473
0.991947 -0.104799 -0.0711193
0.951519 -0.251276 -0.177406
0.882719 -0.385562 -0.268607
0.793086 -0.505725 -0.339495
0.690533 -0.611006 -0.387087
0.582414 -0.701513 -0.410698
0.474788 -0.777914 -0.411613
0.372013 -0.841158 -0.392504
0.276663 -0.892275 -0.356796
0.189703 -0.932252 -0.30809
0.110802 -0.96195 -0.249751
0.038707 -0.982044 -0.184637
-0.0283969 -0.992959 -0.115002
-0.0925567 -0.9948 -0.0424906
-0.155752 -0.987285 0.0317587
-0.219607 -0.969707 0.106966
-0.28509 -0.940964 0.182513
-0.352226 -0.89973 0.257727
-0.419871 -0.844797 0.331703
-0.485695 -0.775575 0.403217
-0.546475 -0.692612 0.4708
-0.598735 -0.597879 0.532971
-0.639518 -0.494629 0.588522
-0.667025 -0.386854 0.636727
-0.680871 -0.278566 0.67736
-0.681961 -0.173228 0.710578
-0.672154 -0.0734409 0.73676
-0.653863 0.0191021 0.756372
-0.629713 0.103522 0.769899
-0.602272 0.1796 0.777825
-0.573858 0.247611 0.780625
-0.5464 0.308178 0.778764
-0.521353 0.362127 0.772693
-0.499669 0.410391 0.76283
-0.481782 0.453939 0.74955
-0.467602 0.493784 0.733161
-0.456395 0.531109 0.713881
-0.446343 0.56758 0.691832
-0.433529 0.605765 0.667159
-0.41197 0.648855 0.63974
-0.0982777 0.896375 0.432265
0.0068254 0.897837 0.440275
0.153573 0.88128 0.446945
0.322138 0.83776 0.440892
0.495753 0.763225 0.414387
0.658572 0.658572 0.364095
0.797319 0.528997 0.290592
0.902714 0.382144 0.197671
0.969803 0.226112 0.0914067
0.99746 0.0681262 -0.020805
0.987634 -0.0859992 -0.131081
0.944705 -0.231906 -0.231846
0.874867 -0.366552 -0.316619
0.785416 -0.488046 -0.3807
0.683893 -0.595458 -0.421569
0.577231 -0.688604 -0.438895
0.471096 -0.767821 -0.434188
0.369523 -0.833762 -0.410236
0.274853 -0.887241 -0.370485
0.187895 -0.929115 -0.318497
0.108222 -0.960187 -0.257543
0.0345234 -0.981108 -0.190354
-0.0350479 -0.992273 -0.119023
-0.10254 -0.99371 -0.0450177
-0.169875 -0.984987 0.0307112
-0.23851 -0.965166 0.10755
-0.309075 -0.932873 0.184989
-0.381023 -0.886555 0.262376
-0.452432 -0.824977 0.338701
-0.520109 -0.747864 0.412536
-0.580136 -0.656472 0.482169
-0.628764 -0.553733 0.545927
-0.663313 -0.443844 0.60251
-0.682715 -0.331444 0.651187
-0.687537 -0.220788 0.69177
-0.679621 -0.115217 0.724459
-0.661588 -0.0169764 0.749675
-0.636379 0.0727054 0.767942
-0.606903 0.15343 0.779825
-0.575793 0.22541 0.785909
-0.545244 0.289272 0.786785
-0.516933 0.345878 0.783038
-0.49198 0.396189 0.775235
-0.470962 0.441176 0.76391
-0.453939 0.481782 0.74955
-0.440424 0.518986 0.732584
-0.429166 0.554005 0.713369
-0.417456 0.588675 0.692237
-0.400106 0.625703 0.669635
-0.373879 0.668589 0.642809
-0.194416 0.900731 0.388441
-0.1319 0.914431 0.382646
-0.00340698 0.919968 0.391979
0.158083 0.904227 0.396715
0.335593 0.859153 0.386309
0.51279 0.781838 0.35465
0.674599 0.674599 0.29972
0.809132 0.543636 0.22308
0.90876 0.39685 0.129094
0.969989 0.241961 0.0239934
0.992707 0.0855054 -0.0849846
0.979407 -0.0673872 -0.19032
0.934622 -0.212848 -0.284916
0.864416 -0.348061 -0.36282
0.775752 -0.471109 -0.41984
0.675735 -0.580841 -0.453878
0.570855 -0.676745 -0.464909
0.466391 -0.758812 -0.454625
0.366086 -0.827401 -0.425898
0.272084 -0.883125 -0.382179
0.185071 -0.926733 -0.326979
0.10454 -0.958987 -0.263467
0.0291206 -0.980523 -0.194232
-0.0430733 -0.991695 -0.121182
-0.114095 -0.992424 -0.0455769
-0.185791 -0.982073 0.0318454
-0.259386 -0.959414 0.110656
-0.33504 -0.922755 0.190451
-0.411469 -0.870343 0.270549
-0.485804 -0.801039 0.349759
-0.553926 -0.715119 0.426347
-0.61134 -0.614802 0.498279
-0.654321 -0.504152 0.563644
-0.680831 -0.388292 0.621046
-0.690828 -0.272345 0.669765
-0.68598 -0.160578 0.70968
-0.669071 -0.0559958 0.741086
-0.643387 0.0396618 0.764513
-0.612241 0.125716 0.780613
-0.578643 0.20227 0.790101
-0.545111 0.269944 0.793715
-0.513576 0.329643 0.792197
-0.485348 0.382387 0.786268
-0.461152 0.429183 0.776622
-0.441176 0.470962 0.76391
-0.425107 0.508598 0.74874
-0.412054 0.543024 0.731667
-0.400144 0.575514 0.71321
-0.385572 0.608061 0.693971
-0.362862 0.643536 0.673938
-0.255158 0.910652 0.324972
-0.152784 0.931317 0.330615
-0.00612957 0.940252 0.340424
0.167002 0.924682 0.34216
0.350692 0.877511 0.327093
0.528997 0.797319 0.290592
0.68785 0.68785 0.231783
0.816913 0.55609 0.153025
0.910195 0.409945 0.0590728
0.965524 0.256599 -0.043823
0.983627 0.101864 -0.148664
0.967394 -0.0497792 -0.248335
0.921392 -0.194886 -0.33624
0.851447 -0.330802 -0.406949
0.764116 -0.455529 -0.456749
0.666024 -0.567656 -0.48392
0.563201 -0.666319 -0.488696
0.460562 -0.751155 -0.472916
0.361594 -0.82224 -0.439512
0.268279 -0.88001 -0.391929
0.181196 -0.925132 -0.333616
0.0997601 -0.958344 -0.267627
0.0225287 -0.980268 -0.196384
-0.0524434 -0.991195 -0.121584
-0.127214 -0.990888 -0.0442398
-0.203512 -0.978441 0.0351616
-0.282227 -0.952261 0.116393
-0.362885 -0.910308 0.199134
-0.443256 -0.850682 0.282603
-0.51937 -0.772535 0.3653
-0.586195 -0.67698 0.445055
-0.638897 -0.567471 0.519411
-0.674171 -0.4493 0.586193
-0.691013 -0.328414 0.64393
-0.690655 -0.210176 0.69197
-0.675931 -0.0986058 0.730339
-0.650484 0.00382502 0.759511
-0.618097 0.0960062 0.780217
-0.582247 0.177851 0.793321
-0.545844 0.249944 0.799739
-0.511121 0.313242 0.800397
-0.47961 0.368843 0.796197
-0.452195 0.417823 0.788
-0.429183 0.461152 0.776622
-0.410391 0.499669 0.76283
-0.395158 0.534151 0.74735
-0.382153 0.565497 0.730871
-0.36872 0.59506 0.714107
-0.349981 0.624951 0.697818
-0.323731 0.659303 0.678615
-0.347857 0.894279 0.281532
-0.288176 0.919042 0.268915