# vtk DataFile Version 2.0
tmp/0.000.00-10.000.000.001.0035.vtk
ASCII
DATASET UNSTRUCTURED_GRID
POINTS 5000 float
0.75 0.25 0
1.75 0.25 0
2.75 0.25 0
3.75 0.25 0
4.75 0.25 0
5.75 0.25 0
6.75 0.25 0
7.75 0.25 0
8.75 0.25 0
9.75 0.25 0
10.75 0.25 0
11.75 0.25 0
12.75 0.25 0
13.75 0.25 0
14.75 0.25 0
15.75 0.25 0
16.75 0.25 0
17.75 0.25 0
18.75 0.25 0
19.75 0.25 0
20.75 0.25 0
21.75 0.25 0
22.75 0.25 0
23.75 0.25 0
24.75 0.25 0
25.75 0.25 0
26.75 0.25 0
27.75 0.25 0
28.75 0.25 0
29.75 0.25 0
30.75 0.25 0
31.75 0.25 0
32.75 0.25 0
33.75 0.25 0
34.75 0.25 0
35.75 0.25 0
36.75 0.25 0
37.75 0.25 0
38.75 0.25 0
39.75 0.25 0
40.75 0.25 0
41.75 0.25 0
42.75 0.25 0
43.75 0.25 0
44.75 0.25 0
45.75 0.25 0
46.75 0.25 0
47.75 0.25 0
48.75 0.25 0
49.75 0.25 0
0.25 0.75 0
1.25 0.75 0
2.25 0.75 0
3.25 0.75 0
4.25 0.75 0
5.25 0.75 0
6.25 0.75 0
7.25 0.75 0
8.25 0.75 0
9.25 0.75 0
10.25 0.75 0
11.25 0.75 0
12.25 0.75 0
13.25 0.75 0
14.25 0.75 0
15.25 0.75 0
16.25 0.75 0
17.25 0.75 0
18.25 0.75 0
19.25 0.75 0
20.25 0.75 0
21.25 0.75 0
22.25 0.75 0
23.25 0.75 0
24.25 0.75 0
25.25 0.75 0
26.25 0.75 0
27.25 0.75 0
28.25 0.75 0
29.25 0.75 0
30.25 0.75 0
31.25 0.75 0
32.25 0.75 0
33.25 0.75 0
34.25 0.75 0
35.25 0.75 0
36.25 0.75 0
37.25 0.75 0
38.25 0.75 0
39.25 0.75 0
40.25 0.75 0
41.25 0.75 0
42.25 0.75 0
43.25 0.75 0
44.25 0.75 0
45.25 0.75 0
46.25 0.75 0
47.25 0.75 0
48.25 0.75 0
49.25 0.75 0
0.75 1.25 0
1.75 1.25 0
2.75 1.25 0
3.75 1.25 0
4.75 1.25 0
5.75 1.25 0
6.75 1.25 0
7.75 1.25 0
8.75 1.25 0
9.75 1.25 0
10.75 1.25 0
11.75 1.25 0
12.75 1.25 0
13.75 1.25 0
14.75 1.25 0
15.75 1.25 0
16.75 1.25 0
17.75 1.25 0
18.75 1.25 0
19.75 1.25 0
20.75 1.25 0
21.75 1.25 0
22.75 1.25 0
23.75 1.25 0
24.75 1.25 0
25.75 1.25 0
26.75 1.25 0
27.75 1.25 0
28.75 1.25 0
29.75 1.25 0
30.75 1.25 0
31.75 1.25 0
32.75 1.25 0
33.75 1.25 0
34.75 1.25 0
35.75 1.25 0
36.75 1.25 0
37.75 1.25 0
38.75 1.25 0
39.75 1.25 0
40.75 1.25 0
41.75 1.25 0
42.75 1.25 0
43.75 1.25 0
44.75 1.25 0
45.75 1.25 0
46.75 1.25 0
47.75 1.25 0
48.75 1.25 0
49.75 1.25 0
0.25 1.75 0
1.25 1.75 0
2.25 1.75 0
3.25 1.75 0
4.25 1.75 0
5.25 1.75 0
6.25 1.75 0
7.25 1.75 0
8.25 1.75 0
9.25 1.75 0
10.25 1.75 0
11.25 1.75 0
12.25 1.75 0
13.25 1.75 0
14.25 1.75 0
15.25 1.75 0
16.25 1.75 0
17.25 1.75 0
18.25 1.75 0
19.25 1.75 0
20.25 1.75 0
21.25 1.75 0
22.25 1.75 0
23.25 1.75 0
24.25 1.75 0
25.25 1.75 0
26.25 1.75 0
27.25 1.75 0
28.25 1.75 0
29.25 1.75 0
30.25 1.75 0
31.25 1.75 0
32.25 1.75 0
33.25 1.75 0
34.25 1.75 0
35.25 1.75 0
36.25 1.75 0
37.25 1.75 0
38.25 1.75 0
39.25 1.75 0
40.25 1.75 0
41.25 1.75 0
42.25 1.75 0
43.25 1.75 0
44.25 1.75 0
45.25 1.75 0
46.25 1.75 0
47.25 1.75 0
48.25 1.75 0
49.25 1.75 0
0.75 2.25 0
1.75 2.25 0
2.75 2.25 0
3.75 2.25 0
4.75 2.25 0
5.75 2.25 0
6.75 2.25 0
7.75 2.25 0
8.75 2.25 0
9.75 2.25 0
10.75 2.25 0
11.75 2.25 0
12.75 2.25 0
13.75 2.25 0
14.75 2.25 0
15.75 2.25 0
16.75 2.25 0
17.75 2.25 0
18.75 2.25 0
19.75 2.25 0
20.75 2.25 0
21.75 2.25 0
22.75 2.25 0
23.75 2.25 0
24.75 2.25 0
25.75 2.25 0
26.75 2.25 0
27.75 2.25 0
28.75 2.25 0
29.75 2.25 0
30.75 2.25 0
31.75 2.25 0
32.75 2.25 0
33.75 2.25 0
34.75 2.25 0
35.75 2.25 0
36.75 2.25 0
37.75 2.25 0
38.75 2.25 0
39.75 2.25 0
40.75 2.25 0
41.75 2.25 0
42.75 2.25 0
43.75 2.25 0
44.75 2.25 0
45.75 2.25 0
46.75 2.25 0
47.75 2.25 0
48.75 2.25 0
49.75 2.25 0
0.25 2.75 0
1.25 2.75 0
2.25 2.75 0
3.25 2.75 0
4.25 2.75 0
5.25 2.75 0
6.25 2.75 0
7.25 2.75 0
8.25 2.75 0
9.25 2.75 0
10.25 2.75 0
11.25 2.75 0
12.25 2.75 0
13.25 2.75 0
14.25 2.75 0
15.25 2.75 0
16.25 2.75 0
17.25 2.75 0
18.25 2.75 0
19.25 2.75 0
20.25 2.75 0
21.25 2.75 0
22.25 2.75 0
23.25 2.75 0
24.25 2.75 0
25.25 2.75 0
26.25 2.75 0
27.25 2.75 0
28.25 2.75 0
29.25 2.75 0
30.25 2.75 0
31.25 2.75 0
32.25 2.75 0
33.25 2.75 0
34.25 2.75 0
35.25 2.75 0
36.25 2.75 0
37.25 2.75 0
38.25 2.75 0
39.25 2.75 0
40.25 2.75 0
41.25 2.75 0
42.25 2.75 0
43.25 2.75 0
44.25 2.75 0
45.25 2.75 0
46.25 2.75 0
47.25 2.75 0
48.25 2.75 0
49.25 2.75 0
0.75 3.25 0
1.75 3.25 0
2.75 3.25 0
3.75 3.25 0
4.75 3.25 0
5.75 3.25 0
6.75 3.25 0
7.75 3.25 0
8.75 3.25 0
9.75 3.25 0
10.75 3.25 0
11.75 3.25 0
12.75 3.25 0
13.75 3.25 0
14.75 3.25 0
15.75 3.25 0
16.75 3.25 0
17.75 3.25 0
18.75 3.25 0
19.75 3.25 0
20.75 3.25 0
21.75 3.25 0
22.75 3.25 0
23.75 3.25 0
24.75 3.25 0
25.75 3.25 0
26.75 3.25 0
27.75 3.25 0
28.75 3.25 0
29.75 3.25 0
30.75 3.25 0
31.75 3.25 0
32.75 3.25 0
33.75 3.25 0
34.75 3.25 0
35.75 3.25 0
36.75 3.25 0
37.75 3.25 0
38.75 3.25 0
39.75 3.25 0
40.75 3.25 0
41.75 3.25 0
42.75 3.25 0
43.75 3.25 0
44.75 3.25 0
45.75 3.25 0
46.75 3.25 0
47.75 3.25 0
48.75 3.25 0
49.75 3.25 0
0.25 3.75 0
1.25 3.75 0
2.25 3.75 0
3.25 3.75 0
4.25 3.75 0
5.25 3.75 0
6.25 3.75 0
7.25 3.75 0
8.25 3.75 0
9.25 3.75 0
10.25 3.75 0
11.25 3.75 0
12.25 3.75 0
13.25 3.75 0
14.25 3.75 0
15.25 3.75 0
16.25 3.75 0
17.25 3.75 0
18.25 3.75 0
19.25 3.75 0
20.25 3.75 0
21.25 3.75 0
22.25 3.75 0
23.25 3.75 0
24.25 3.75 0
25.25 3.75 0
26.25 3.75 0
27.25 3.75 0
28.25 3.75 0
29.25 3.75 0
30.25 3.75 0
31.25 3.75 0
32.25 3.75 0
33.25 3.75 0
34.25 3.75 0
35.25 3.75 0
36.25 3.75 0
37.25 3.75 0
38.25 3.75 0
39.25 3.75 0
40.25 3.75 0
41.25 3.75 0
42.25 3.75 0
43.25 3.75 0
44.25 3.75 0
45.25 3.75 0
46.25 3.75 0
47.25 3.75 0
48.25 3.75 0
49.25 3.75 0
0.75 4.25 0
1.75 4.25 0
2.75 4.25 0
3.75 4.25 0
4.75 4.25 0
5.75 4.25 0
6.75 4.25 0
7.75 4.25 0
8.75 4.25 0
9.75 4.25 0
10.75 4.25 0
11.75 4.25 0
12.75 4.25 0
13.75 4.25 0
14.75 4.25 0
15.75 4.25 0
16.75 4.25 0
17.75 4.25 0
18.75 4.25 0
19.75 4.25 0
20.75 4.25 0
21.75 4.25 0
22.75 4.25 0
23.75 4.25 0
24.75 4.25 0
25.75 4.25 0
26.75 4.25 0
27.75 4.25 0
28.75 4.25 0
29.75 4.25 0
30.75 4.25 0
31.75 4.25 0
32.75 4.25 0
33.75 4.25 0
34.75 4.25 0
35.75 4.25 0
36.75 4.25 0
37.75 4.25 0
38.75 4.25 0
39.75 4.25 0
40.75 4.25 0
41.75 4.25 0
42.75 4.25 0
43.75 4.25 0
44.75 4.25 0
45.75 4.25 0
46.75 4.25 0
47.75 4.25 0
48.75 4.25 0
49.75 4.25 0
0.25 4.75 0
1.25 4.75 0
2.25 4.75 0
3.25 4.75 0
4.25 4.75 0
5.25 4.75 0
6.25 4.75 0
7.25 4.75 0
8.25 4.75 0
9.25 4.75 0
10.25 4.75 0
11.25 4.75 0
12.25 4.75 0
13.25 4.75 0
14.25 4.75 0
15.25 4.75 0
16.25 4.75 0
17.25 4.75 0
18.25 4.75 0
19.25 4.75 0
20.25 4.75 0
21.25 4.75 0
22.25 4.75 0
23.25 4.75 0
24.25 4.75 0
25.25 4.75 0
26.25 4.75 0
27.25 4.75 0
28.25 4.75 0
29.25 4.75 0
30.25 4.75 0
31.25 4.75 0
32.25 4.75 0
33.25 4.75 0
34.25 4.75 0
35.25 4.75 0
36.25 4.75 0
37.25 4.75 0
38.25 4.75 0
39.25 4.75 0
40.25 4.75 0
41.25 4.75 0
42.25 4.75 0
43.25 4.75 0
44.25 4.75 0
45.25 4.75 0
46.25 4.75 0
47.25 4.75 0
48.25 4.75 0
49.25 4.75 0
0.75 5.25 0
1.75 5.25 0
2.75 5.25 0
3.75 5.25 0
4.75 5.25 0
5.75 5.25 0
6.75 5.25 0
7.75 5.25 0
8.75 5.25 0
9.75 5.25 0
10.75 5.25 0
11.75 5.25 0
12.75 5.25 0
13.75 5.25 0
14.75 5.25 0
15.75 5.25 0
16.75 5.25 0
17.75 5.25 0
18.75 5.25 0
19.75 5.25 0
20.75 5.25 0
21.75 5.25 0
22.75 5.25 0
23.75 5.25 0
24.75 5.25 0
25.75 5.25 0
26.75 5.25 0
27.75 5.25 0
28.75 5.25 0
29.75 5.25 0
30.75 5.25 0
31.75 5.25 0
32.75 5.25 0
33.75 5.25 0
34.75 5.25 0
35.75 5.25 0
36.75 5.25 0
37.75 5.25 0
38.75 5.25 0
39.75 5.25 0
40.75 5.25 0
41.75 5.25 0
42.75 5.25 0
43.75 5.25 0
44.75 5.25 0
45.75 5.25 0
46.75 5.25 0
47.75 5.25 0
48.75 5.25 0
49.75 5.25 0
0.25 5.75 0
1.25 5.75 0
2.25 5.75 0
3.25 5.75 0
4.25 5.75 0
5.25 5.75 0
6.25 5.75 0
7.25 5.75 0
8.25 5.75 0
9.25 5.75 0
10.25 5.75 0
11.25 5.75 0
12.25 5.75 0
13.25 5.75 0
14.25 5.75 0
15.25 5.75 0
16.25 5.75 0
17.25 5.75 0
18.25 5.75 0
19.25 5.75 0
20.25 5.75 0
21.25 5.75 0
22.25 5.75 0
23.25 5.75 0
24.25 5.75 0
25.25 5.75 0
26.25 5.75 0
27.25 5.75 0
28.25 5.75 0
29.25 5.75 0
30.25 5.75 0
31.25 5.75 0
32.25 5.75 0
33.25 5.75 0
34.25 5.75 0
35.25 5.75 0
36.25 5.75 0
37.25 5.75 0
38.25 5.75 0
39.25 5.75 0
40.25 5.75 0
41.25 5.75 0
42.25 5.75 0
43.25 5.75 0
44.25 5.75 0
45.25 5.75 0
46.25 5.75 0
47.25 5.75 0
48.25 5.75 0
49.25 5.75 0
0.75 6.25 0
1.75 6.25 0
2.75 6.25 0
3.75 6.25 0
4.75 6.25 0
5.75 6.25 0
6.75 6.25 0
7.75 6.25 0
8.75 6.25 0
9.75 6.25 0
10.75 6.25 0
11.75 6.25 0
12.75 6.25 0
13.75 6.25 0
14.75 6.25 0
15.75 6.25 0
16.75 6.25 0
17.75 6.25 0
18.75 6.25 0
19.75 6.25 0
20.75 6.25 0
21.75 6.25 0
22.75 6.25 0
23.75 6.25 0
24.75 6.25 0
25.75 6.25 0
26.75 6.25 0
27.75 6.25 0
28.75 6.25 0
29.75 6.25 0
30.75 6.25 0
31.75 6.25 0
32.75 6.25 0
33.75 6.25 0
34.75 6.25 0
35.75 6.25 0
36.75 6.25 0
37.75 6.25 0
38.75 6.25 0
39.75 6.25 0
40.75 6.25 0
41.75 6.25 0
42.75 6.25 0
43.75 6.25 0
44.75 6.25 0
45.75 6.25 0
46.75 6.25 0
47.75 6.25 0
48.75 6.25 0
49.75 6.25 0
0.25 6.75 0
1.25 6.75 0
2.25 6.75 0
3.25 6.75 0
4.25 6.75 0
5.25 6.75 0
6.25 6.75 0
7.25 6.75 0
8.25 6.75 0
9.25 6.75 0
10.25 6.75 0
11.25 6.75 0
12.25 6.75 0
13.25 6.75 0
14.25 6.75 0
15.25 6.75 0
16.25 6.75 0
17.25 6.75 0
18.25 6.75 0
19.25 6.75 0
20.25 6.75 0
21.25 6.75 0
22.25 6.75 0
23.25 6.75 0
24.25 6.75 0
25.25 6.75 0
26.25 6.75 0
27.25 6.75 0
28.25 6.75 0
29.25 6.75 0
30.25 6.75 0
31.25 6.75 0
32.25 6.75 0
33.25 6.75 0
34.25 6.75 0
35.25 6.75 0
36.25 6.75 0
37.25 6.75 0
38.25 6.75 0
39.25 6.75 0
40.25 6.75 0
41.25 6.75 0
42.25 6.75 0
43.25 6.75 0
44.25 6.75 0
45.25 6.75 0
46.25 6.75 0
47.25 6.75 0
48.25 6.75 0
49.25 6.75 0
0.75 7.25 0
1.75 7.25 0
2.75 7.25 0
3.75 7.25 0
4.75 7.25 0
5.75 7.25 0
6.75 7.25 0
7.75 7.25 0
8.75 7.25 0
9.75 7.25 0
10.75 7.25 0
11.75 7.25 0
12.75 7.25 0
13.75 7.25 0
14.75 7.25 0
15.75 7.25 0
16.75 7.25 0
17.75 7.25 0
18.75 7.25 0
19.75 7.25 0
20.75 7.25 0
21.75 7.25 0
22.75 7.25 0
23.75 7.25 0
24.75 7.25 0
25.75 7.25 0
26.75 7.25 0
27.75 7.25 0
28.75 7.25 0
29.75 7.25 0
30.75 7.25 0
31.75 7.25 0
32.75 7.25 0
33.75 7.25 0
34.75 7.25 0
35.75 7.25 0
36.75 7.25 0
37.75 7.25 0
38.75 7.25 0
39.75 7.25 0
40.75 7.25 0
41.75 7.25 0
42.75 7.25 0
43.75 7.25 0
44.75 7.25 0
45.75 7.25 0
46.75 7.25 0
47.75 7.25 0
48.75 7.25 0
49.75 7.25 0
0.25 7.75 0
1.25 7.75 0
2.25 7.75 0
3.25 7.75 0
4.25 7.75 0
5.25 7.75 0
6.25 7.75 0
7.25 7.75 0
8.25 7.75 0
9.25 7.75 0
10.25 7.75 0
11.25 7.75 0
12.25 7.75 0
13.25 7.75 0
14.25 7.75 0
15.25 7.75 0
16.25 7.75 0
17.25 7.75 0
18.25 7.75 0
19.25 7.75 0
20.25 7.75 0
21.25 7.75 0
[...]
POINT_DATA 5000
VECTORS velocity float
-0.458871 -0.500538 0.734097
-0.359566 -0.575161 0.73478
-0.219571 -0.677061 0.702408
-0.0664165 -0.780695 0.621372
0.079518 -0.868213 0.489778
0.20646 -0.926989 0.313155
0.305161 -0.946907 0.101208
0.365489 -0.921602 -0.130642
0.378472 -0.852476 -0.360616
0.341325 -0.751163 -0.565023
0.260265 -0.636397 -0.726127
0.148136 -0.526678 -0.837058
0.0193217 -0.434391 -0.900517
-0.114081 -0.364449 -0.924209
-0.243572 -0.316065 -0.916938
-0.363973 -0.285228 -0.886662
-0.472644 -0.26663 -0.83995
-0.568669 -0.254877 -0.782083
-0.652167 -0.245195 -0.717326
-0.723752 -0.233872 -0.64922
-0.784162 -0.218522 -0.580808
-0.834115 -0.198171 -0.514762
-0.874336 -0.173103 -0.453401
-0.905652 -0.144495 -0.398642
-0.929054 -0.113963 -0.351952
-0.945662 -0.0831342 -0.314345
-0.956614 -0.0533603 -0.286431
-0.962937 -0.0255723 -0.268513
-0.965431 -0.000272593 -0.260658
-0.964611 0.0223946 -0.262723
-0.960701 0.0425415 -0.274306
-0.953694 0.0604404 -0.294643
-0.943472 0.0764538 -0.322513
-0.929964 0.0909866 -0.356215
-0.913302 0.104437 -0.393665
-0.893942 0.117142 -0.432603
-0.872683 0.129332 -0.470847
-0.850588 0.141122 -0.506543
-0.828811 0.152571 -0.538326
-0.808395 0.163788 -0.565395
-0.790069 0.175059 -0.587491
-0.774085 0.186948 -0.604849
-0.76009 0.200387 -0.618149
-0.747029 0.216808 -0.628445
-0.733025 0.238316 -0.637087
-0.715108 0.267831 -0.645668
-0.688661 0.308968 -0.655961
-0.647033 0.364865 -0.669494
-0.584416 0.434333 -0.685429
-0.512544 0.512544 -0.688911
-0.500538 -0.458871 0.734097
-0.407517 -0.49546 0.767105
-0.247528 -0.588423 0.769733
-0.0624158 -0.686759 0.7242
0.11231 -0.7721 0.625498
0.261827 -0.83728 0.48001
0.380978 -0.876506 0.294267
0.463602 -0.882743 0.0764093
0.500672 -0.85095 -0.158782
0.485153 -0.783255 -0.388764
0.418296 -0.691254 -0.589234
0.311084 -0.59211 -0.743392
0.179545 -0.501314 -0.846433
0.0387482 -0.427966 -0.902964
-0.10034 -0.374493 -0.921785
-0.231156 -0.3387 -0.912058
-0.350611 -0.315959 -0.881613
-0.457988 -0.300731 -0.836545
-0.553962 -0.28745 -0.781344
-0.639712 -0.271092 -0.71922
-0.716116 -0.247694 -0.652553
-0.783179 -0.214968 -0.583454
-0.840005 -0.172848 -0.514311
-0.885429 -0.123567 -0.448048
-0.918965 -0.070975 -0.3879
-0.941375 -0.0192872 -0.33681
-0.954503 0.0281151 -0.296873
-0.960602 0.0692817 -0.269152
-0.961677 0.103645 -0.253842
-0.959117 0.131616 -0.250543
-0.95365 0.154135 -0.258445
-0.945473 0.172329 -0.276376
-0.934477 0.187307 -0.302768
-0.920495 0.200059 -0.335656
-0.903523 0.211402 -0.372766
-0.883879 0.22194 -0.411704
-0.862254 0.232038 -0.450195
-0.839644 0.241852 -0.486319
-0.817182 0.251395 -0.518666
-0.795924 0.260661 -0.546407
-0.776647 0.26973 -0.569268
-0.75968 0.278831 -0.587486
-0.744787 0.288399 -0.601762
-0.731089 0.299178 -0.613189
-0.716998 0.312411 -0.623147
-0.700062 0.330078 -0.633215
-0.676517 0.355119 -0.645147
-0.640479 0.391365 -0.660772
-0.584041 0.44207 -0.680787
-0.506871 0.506871 -0.697255
-0.49546 -0.407517 0.767105
-0.342748 -0.469968 0.813421
-0.134092 -0.563621 0.815077
0.0707652 -0.651303 0.755511
0.245817 -0.725417 0.642918
0.387317 -0.783467 0.485968
0.494152 -0.81987 0.289183
0.559765 -0.826453 0.0603231
0.574751 -0.797593 -0.183047
0.534843 -0.736164 -0.414735
0.446636 -0.654589 -0.609942
0.325221 -0.568989 -0.755303
0.187054 -0.492048 -0.850235
0.0449553 -0.4301 -0.901661
-0.0929299 -0.384037 -0.918629
-0.222221 -0.351328 -0.909498
-0.341169 -0.327632 -0.881057
-0.449777 -0.307778 -0.838435
-0.549015 -0.286357 -0.785227
-0.639938 -0.258258 -0.723729
-0.722656 -0.219462 -0.655443
-0.795595 -0.168252 -0.581996
-0.855824 -0.106324 -0.506222
-0.900755 -0.0387422 -0.432595
-0.930052 0.02787 -0.366368
-0.946026 0.0878828 -0.311949
-0.952365 0.138223 -0.271837
-0.952548 0.178354 -0.246663
-0.948971 0.20938 -0.235828
-0.942855 0.233108 -0.238088
-0.934537 0.251439 -0.251832
-0.923857 0.266055 -0.275141
-0.910514 0.278319 -0.305783
-0.89435 0.289244 -0.341286
-0.875548 0.299495 -0.379102
-0.8547 0.309407 -0.416839
-0.832741 0.319057 -0.452487
-0.810776 0.328369 -0.484578
-0.789855 0.337246 -0.512244
-0.770764 0.345684 -0.535187
-0.753872 0.353789 -0.553633
-0.739024 0.361787 -0.56829
-0.725474 0.370101 -0.58027
-0.711849 0.379529 -0.590956
-0.696062 0.391477 -0.601867
-0.674988 0.408225 -0.614609
-0.643671 0.433077 -0.630977
-0.594298 0.469666 -0.652858
-0.518701 0.518701 -0.679631
-0.434333 0.584416 -0.685429
-0.575161 -0.359566 0.73478
-0.469968 -0.342748 0.813421
-0.260475 -0.415204 0.871641
-0.0278624 -0.502958 0.863862
0.17551 -0.584509 0.792177
0.340886 -0.658273 0.671173
0.472259 -0.721839 0.505885
0.568114 -0.767411 0.297197
0.618731 -0.783777 0.0535371
0.613671 -0.763317 -0.201879
0.552731 -0.709588 -0.437004
0.448757 -0.636672 -0.627109
0.319678 -0.560465 -0.763993
0.180219 -0.491719 -0.8519
0.0396653 -0.435 -0.899556
-0.0967443 -0.390506 -0.915503
-0.226176 -0.35585 -0.906761
-0.347335 -0.327117 -0.878836
-0.460037 -0.299447 -0.835881
-0.564694 -0.267513 -0.780742
-0.661382 -0.226244 -0.715114
-0.748642 -0.172137 -0.640238
-0.822929 -0.1051 -0.558339
-0.879991 -0.0296065 -0.474067
-0.917802 0.0465647 -0.394298
-0.938298 0.115793 -0.325866
-0.946168 0.173548 -0.273216
-0.946319 0.218897 -0.237833
-0.942249 0.253289 -0.219117
-0.935765 0.279147 -0.215453
-0.927412 0.298946 -0.224808
-0.917018 0.314794 -0.244912
-0.904179 0.328307 -0.273267
-0.888606 0.340609 -0.307189
-0.870368 0.352354 -0.343955
-0.849985 0.363797 -0.381022
-0.828365 0.374889 -0.416257
-0.806627 0.385429 -0.448105
-0.785846 0.395227 -0.475648
-0.766839 0.404219 -0.498563
-0.750008 0.412467 -0.517068
-0.735258 0.420115 -0.531882
-0.721936 0.42744 -0.544153
-0.708812 0.435005 -0.555298
-0.694046 0.443877 -0.56681
-0.674989 0.455868 -0.58015
-0.64759 0.473711 -0.596846
-0.605241 0.50069 -0.618865
-0.538194 0.538194 -0.64861
-0.44207 0.584041 -0.680787
-0.588423 -0.247528 0.769733
-0.415204 -0.260475 0.871641
-0.17007 -0.336027 0.92637
0.0615688 -0.419673 0.905585
0.250958 -0.501746 0.827811
0.403959 -0.582743 0.705144
0.527077 -0.659615 0.535815
0.61547 -0.722026 0.31603
0.654445 -0.754077 0.0554036
0.632247 -0.74444 -0.214646
0.55396 -0.697487 -0.454576
0.438643 -0.630106 -0.640748
0.30524 -0.558933 -0.770988
0.165436 -0.493704 -0.853749
0.0251014 -0.438047 -0.898602
-0.112545 -0.391923 -0.913088
-0.245251 -0.353132 -0.902857
-0.371402 -0.317979 -0.872324
-0.490047 -0.281677 -0.824932
-0.600498 -0.238914 -0.763101
-0.701282 -0.184981 -0.688466
-0.789 -0.117714 -0.603011
-0.858673 -0.0396119 -0.510991
-0.906603 0.042022 -0.419886
-0.933507 0.118284 -0.338487
-0.944338 0.182881 -0.273459
-0.945253 0.23384 -0.22763
-0.940998 0.272454 -0.200728
-0.934168 0.301478 -0.190897
-0.92565 0.32383 -0.195719
-0.915345 0.341987 -0.212576
-0.902772 0.357803 -0.238703
-0.887519 0.372505 -0.271202
-0.869528 0.386746 -0.307162
-0.849237 0.400692 -0.343865
-0.827532 0.414167 -0.379022
-0.805563 0.426832 -0.410954
-0.784472 0.438386 -0.438659
-0.765138 0.448704 -0.461766
-0.748032 0.45782 -0.480467
-0.733128 0.465841 -0.495495
-0.719857 0.472968 -0.508043
-0.70709 0.479631 -0.519595
-0.693147 0.486685 -0.531681
-0.675706 0.495618 -0.545695
-0.651421 0.508714 -0.562904
-0.615016 0.528865 -0.584856
-0.558021 0.558021 -0.614186
-0.469666 0.594298 -0.652858
-0.364865 0.647033 -0.669494
-0.677061 -0.219571 0.702408
-0.563621 -0.134092 0.815077
-0.336027 -0.17007 0.92637
-0.0829599 -0.247305 0.96538
0.131202 -0.33056 0.934621
0.302218 -0.416484 0.857441
0.443659 -0.507165 0.738885
0.561366 -0.600132 0.569833
0.646072 -0.68291 0.340918
0.676934 -0.733361 0.0627926
0.640652 -0.734767 -0.222898
0.548408 -0.692836 -0.468216
0.424673 -0.628419 -0.651723
0.287831 -0.559497 -0.777249
0.146298 -0.495295 -0.856317
0.00340787 -0.438882 -0.898538
-0.138578 -0.390052 -0.910305
-0.277199 -0.346614 -0.896114
-0.410024 -0.304845 -0.859622
-0.53498 -0.259868 -0.803906
-0.649926 -0.206497 -0.731406
-0.75154 -0.140908 -0.644463
-0.834744 -0.0631032 -0.54701
-0.894574 0.0214461 -0.446405
-0.929979 0.10358 -0.352719
-0.945361 0.175192 -0.274955
-0.947852 0.232622 -0.21786
-0.943646 0.276461 -0.181937
-0.936415 0.309537 -0.16527
-0.92759 0.335155 -0.165071
-0.917236 0.356189 -0.178349
-0.904832 0.374775 -0.202048
-0.88983 0.392292 -0.233043
-0.872025 0.409418 -0.268232
-0.851737 0.426254 -0.304715
-0.829801 0.442504 -0.340031
-0.807388 0.457693 -0.372347
-0.78571 0.471405 -0.400545
-0.765741 0.48345 -0.424166
-0.748044 0.493834 -0.443348
-0.732698 0.502642 -0.458807
-0.719238 0.510018 -0.471782
-0.706638 0.516297 -0.483839
-0.693339 0.522179 -0.496598
-0.677236 0.528913 -0.511471
-0.655474 0.538431 -0.529571
-0.623854 0.55328 -0.551986
-0.575695 0.575695 -0.580646
-0.50069 0.605241 -0.618865
-0.391365 0.640479 -0.660772
-0.686759 -0.0624158 0.7242
-0.502958 -0.0278624 0.863862
-0.247305 -0.0829599 0.96538
-0.00824905 -0.163112 0.986573
0.181864 -0.247586 0.951644
0.334907 -0.337368 0.879784
0.466716 -0.436894 0.76896
0.581568 -0.545483 0.603512
0.665851 -0.649134 0.367787
0.691812 -0.718395 0.0728303
0.644273 -0.729939 -0.228259
0.54076 -0.691504 -0.478958
0.410066 -0.628611 -0.660828
0.269167 -0.560694 -0.783053
0.12369 -0.496588 -0.859128
-0.0245665 -0.438872 -0.898214
-0.173455 -0.38708 -0.905584
-0.319751 -0.338847 -0.88484
-0.459853 -0.290271 -0.839213
-0.590263 -0.236406 -0.771817
-0.707107 -0.172516 -0.685739
-0.805257 -0.0963524 -0.585045
-0.878974 -0.0107215 -0.476748
-0.925305 0.076268 -0.371475
-0.94726 0.155158 -0.280402
-0.952434 0.220096 -0.210778
-0.948613 0.270316 -0.164507
-0.940921 0.308373 -0.139904
-0.931619 0.337892 -0.133845
-0.921078 0.362202 -0.142912
-0.908785 0.383812 -0.163702
-0.894059 0.404318 -0.192836
-0.876521 0.424474 -0.22701
-0.856339 0.44434 -0.263146
-0.83426 0.463512 -0.298609
-0.811443 0.481383 -0.331407
-0.789156 0.497423 -0.360282
-0.768459 0.511378 -0.38466
-0.750021 0.523241 -0.404583
-0.734047 0.533078 -0.420716
-0.72021 0.540986 -0.434317
-0.707608 0.547218 -0.447038
-0.694799 0.552351 -0.460611
-0.679835 0.557437 -0.476538
-0.660187 0.564133 -0.49589
-0.632417 0.574678 -0.519417
-0.591372 0.591372 -0.548231
-0.528865 0.615016 -0.584856
-0.433077 0.643671 -0.630977
-0.308968 0.688661 -0.655961
-0.780695 -0.0664165 0.621372
-0.651303 0.0707652 0.755511
-0.419673 0.0615688 0.905585
-0.163112 -0.00824905 0.986573
0.0509186 -0.0911174 0.994538
0.217191 -0.176211 0.960093
0.354655 -0.268312 0.895672
0.478838 -0.37452 0.794008
0.59274 -0.496556 0.634107
0.679007 -0.619617 0.393731
0.702596 -0.706677 0.0834639
0.646036 -0.727242 -0.231853
0.532985 -0.691563 -0.487511
0.395609 -0.629858 -0.66841
0.249284 -0.562744 -0.788148
0.0975533 -0.498594 -0.861329
-0.0585044 -0.439448 -0.896361
-0.216239 -0.384468 -0.897455
-0.371213 -0.331013 -0.867543
-0.518281 -0.275001 -0.80979
-0.652199 -0.211639 -0.727905
-0.767232 -0.137197 -0.626524
-0.857061 -0.0517591 -0.512609
-0.917056 0.0388323 -0.396864
-0.948184 0.124887 -0.292147
-0.95769 0.19829 -0.208591
-0.954872 0.256186 -0.150294
-0.946722 0.300323 -0.11629
-0.93673 0.334483 -0.103234
-0.925797 0.362497 -0.107218
-0.9135 0.387349 -0.124409
-0.899043 0.410956 -0.151119
-0.881857 0.434211 -0.183819
-0.861932 0.457166 -0.219254
-0.839892 0.479322 -0.254621
-0.816852 0.499941 -0.287771
-0.794105 0.518376 -0.317306
-0.772775 0.534319 -0.342522
-0.753621 0.547764 -0.363333
-0.736977 0.558772 -0.380314
-0.722673 0.567402 -0.394713
-0.709961 0.573837 -0.408248
-0.697529 0.578546 -0.422774
-0.683561 0.58242 -0.439922
-0.665748 0.586885 -0.460809
-0.641153 0.593912 -0.485995
-0.605727 0.605727 -0.515935
-0.55328 0.623854 -0.551986
-0.473711 0.64759 -0.596846
-0.355119 0.676517 -0.645147
-0.7721 0.11231 0.625498
-0.584509 0.17551 0.792177
-0.33056 0.131202 0.934621
-0.0911174 0.0509186 0.994538
0.0958818 -0.0329085 0.994849
0.241512 -0.11722 0.963292
0.366244 -0.209929 0.906529
0.484579 -0.320528 0.813907
0.598814 -0.453263 0.660284
0.688563 -0.593268 0.41703
0.711446 -0.696492 0.0935055
0.647338 -0.725307 -0.234273
0.525585 -0.692473 -0.494209
0.381059 -0.632363 -0.674471
0.227679 -0.566357 -0.792087
0.0675361 -0.502247 -0.862083
-0.0983994 -0.441459 -0.89187
-0.26644 -0.382715 -0.884612
-0.430433 -0.323098 -0.842814
-0.58323 -0.258525 -0.77007
-0.71755 -0.18481 -0.671541
-0.826084 -0.099992 -0.554605
-0.902752 -0.00711247 -0.430102
-0.946235 0.0853842 -0.312008
-0.962463 0.167815 -0.213314
-0.961769 0.234705 -0.141118
-0.953344 0.286242 -0.0959262
-0.942434 0.325998 -0.0744499
-0.930813 0.35828 -0.0722684
-0.918296 0.38666 -0.0850094
-0.904008 0.413494 -0.10859
-0.887187 0.439907 -0.139216
-0.867624 0.465992 -0.173438
-0.845792 0.491171 -0.208295
-0.822736 0.514576 -0.241488
-0.79975 0.535439 -0.271487
-0.777989 0.553403 -0.297453
-0.75827 0.568477 -0.319156
-0.74104 0.580739 -0.337049
-0.726288 0.590224 -0.352336
-0.713438 0.597057 -0.366782
-0.701329 0.601613 -0.38236
-0.688274 0.604649 -0.400847
-0.672115 0.6074 -0.42347
-0.650233 0.611597 -0.450717
-0.619316 0.619316 -0.482591
-0.574678 0.632417 -0.519417
-0.508714 0.651421 -0.562904
-0.408225 0.674988 -0.614609
-0.267831 0.715108 -0.645668
-0.868213 0.079518 0.489778
-0.725417 0.245817 0.642918
-0.501746 0.250958 0.827811
-0.247586 0.181864 0.951644
-0.0329085 0.0958818 0.994849
0.129738 0.0131659 0.991461
0.258597 -0.0690965 0.963511
0.37325 -0.161062 0.913643
0.48723 -0.274112 0.829138
0.602603 -0.414879 0.681722
0.696533 -0.569128 0.436961
0.719535 -0.686856 0.102461
0.648634 -0.723671 -0.235742
0.518363 -0.694366 -0.499155
0.365835 -0.636615 -0.678886
0.203717 -0.572146 -0.794448
0.0331302 -0.508051 -0.86069
-0.144537 -0.44507 -0.883755
-0.323946 -0.381469 -0.86576
-0.496559 -0.314199 -0.80914
-0.652691 -0.239579 -0.718746
-0.783021 -0.154758 -0.602435
-0.879739 -0.0603843 -0.471606
-0.939249 0.0373924 -0.341193
-0.965418 0.128749 -0.226699
-0.968722 0.205725 -0.13876
-0.960582 0.266142 -0.0803212
-0.948595 0.312722 -0.0487002
-0.935913 0.35006 -0.0390407
-0.922841 0.382384 -0.0463255
-0.908505 0.412635 -0.0659595
-0.891954 0.442286 -0.0938116
-0.872764 0.471543 -0.126214
-0.85124 0.499779 -0.160038
-0.828332 0.526002 -0.192845
-0.805316 0.549315 -0.222978
-0.783356 0.569312 -0.249473
-0.763288 0.586036 -0.271943
-0.745637 0.599602 -0.290693
-0.730544 0.610035 -0.306859
-0.717608 0.617416 -0.322236
-0.705834 0.62205 -0.338899
-0.693669 0.62458 -0.358782
-0.679073 0.626079 -0.383256
-0.659617 0.628073 -0.412832
-0.632449 0.632449 -0.447232
-0.593912 0.641153 -0.485995
-0.538431 0.655474 -0.529571
-0.455868 0.674989 -0.58015
-0.330078 0.700062 -0.633215
-0.83728 0.261827 0.48001
-0.658273 0.340886 0.671173
-0.416484 0.302218 0.857441
-0.176211 0.217191 0.960093
0.0131659 0.129738 0.991461
0.155639 0.0497398 0.986561
0.271271 -0.0296148 0.962047
0.378084 -0.119897 0.917975
0.488915 -0.233894 0.840391
0.605872 -0.380426 0.69871
0.704084 -0.54647 0.453472
0.727355 -0.677346 0.110256
0.649869 -0.722374 -0.236317
0.510856 -0.697585 -0.502397
0.349277 -0.643028 -0.681558
0.176693 -0.580424 -0.794913
-0.00637381 -0.516034 -0.856544
-0.197515 -0.449834 -0.870998
-0.388886 -0.379694 -0.839405
-0.568675 -0.302783 -0.764808
-0.724251 -0.216559 -0.654647
-0.844978 -0.120466 -0.521056
-0.924694 -0.0183607 -0.380268
-0.964804 0.0811852 -0.250126
-0.974938 0.168788 -0.14494
-0.968286 0.23953 -0.0710446
-0.955286 0.294427 -0.0272344
-0.941144 0.337899 -0.00851164
-0.927066 0.374787 -0.00915095
-0.912333 0.408751 -0.0239049
-0.895835 0.441765 -0.0482017
-0.87692 0.474247 -0.0781055
-0.855704 0.505571 -0.110307
-0.833028 0.534638 -0.142223
-0.810137 0.560416 -0.17208
-0.788187 0.582445 -0.198792
-0.767992 0.600824 -0.221807
-0.750119 0.615722 -0.241264
-0.734841 0.627166 -0.258208
-0.721931 0.635212 -0.274449
-0.710564 0.640113 -0.292155
-0.699328 0.642425 -0.313417
-0.686285 0.643091 -0.339775
-0.66911 0.643457 -0.371827
-0.645213 0.645213 -0.409147
-0.611597 0.650233 -0.450717
-0.564133 0.660187 -0.49589
-0.495618 0.675706 -0.545695
-0.391477 0.696062 -0.601867
-0.238316 0.733025 -0.637087
-0.926989 0.20646 0.313155
-0.783467 0.387317 0.485968
-0.582743 0.403959 0.705144
-0.337368 0.334907 0.879784
-0.11722 0.241512 0.963292
0.0497398 0.155639 0.986561
0.176149 0.0793408 0.981161
0.281466 0.00338928 0.959565
0.382219 -0.0845847 0.920192
0.49082 -0.198418 0.848367
0.609547 -0.348943 0.711823
0.711755 -0.524821 0.46687
0.734995 -0.667903 0.116994
0.650767 -0.721655 -0.236043
0.50253 -0.702439 -0.504027
0.330689 -0.651825 -0.682473
0.145751 -0.591201 -0.793245
-0.0519847 -0.525811 -0.849011
-0.258237 -0.454769 -0.852349
-0.461404 -0.375765 -0.803683
-0.645362 -0.286906 -0.70795
-0.794729 -0.18792 -0.577141
-0.899559 -0.0815051 -0.429127
-0.958352 0.0254282 -0.284455
-0.979163 0.123517 -0.161196
-0.976135 0.205665 -0.0697352
-0.962653 0.270498 -0.0114143
-0.946733 0.321501 0.0182842
-0.931102 0.363852 0.0257172
-0.915485 0.401995 0.0169243
-0.898689 0.438576 -0.0029444
-0.879832 0.474362 -0.0296083
-0.85882 0.508805 -0.0595477
-0.836363 0.540734 -0.0900216
-0.813675 0.568979 -0.119142
-0.791888 0.593028 -0.145709
-0.771758 0.61305 -0.168993
-0.753856 0.629288 -0.188939
-0.738566 0.641781 -0.206489
-0.725823 0.650576 -0.223454
-0.714976 0.655898 -0.242089
-0.704762 0.658239 -0.264638
-0.69333 0.658441 -0.292831
-0.678408 0.657705 -0.327395
-0.657525 0.657525 -0.36786
-0.628073 0.659617 -0.412832
-0.586885 0.665748 -0.460809
-0.528913 0.677236 -0.511471
-0.443877 0.694046 -0.56681
-0.312411 0.716998 -0.623147
-0.876506 0.380978 0.294267
-0.721839 0.472259 0.505885
-0.507165 0.443659 0.738885
-0.268312 0.354655 0.895672
-0.0690965 0.258597 0.963511
0.0793408 0.176149 0.981161
0.193156 0.104029 0.975638
0.290409 0.0317274 0.956377
0.386445 -0.0535267 0.920758
0.493469 -0.1664 0.853697
0.61398 -0.319625 0.721712
0.719705 -0.50391 0.477598
0.742361 -0.658648 0.122811
0.650991 -0.721783 -0.235031
0.492827 -0.709141 -0.504222
0.309264 -0.663059 -0.681695
0.109753 -0.60424 -0.789207
-0.105121 -0.536613 -0.837255
-0.327845 -0.458351 -0.826094
-0.54128 -0.367518 -0.756272
-0.724204 -0.264466 -0.636857
-0.8601 -0.152629 -0.486757
-0.943237 -0.0383125 -0.329903
-0.97955 0.0698481 -0.188685
-0.983394 0.163859 -0.0780118
-0.970751 0.240073 -0.00275176
-0.953015 0.300248 0.040179
-0.935251 0.349296 0.0574194
-0.918126 0.392331 0.0558702
-0.900531 0.432814 0.0414232
-0.88138 0.472033 0.0188145
-0.860352 0.509635 -0.00817338
-0.838004 0.544433 -0.0366201
-0.815509 0.575137 -0.0645163
-0.793972 0.601174 -0.0905485
-0.774053 0.62281 -0.113796
-0.756283 0.640379 -0.133982
-0.741138 0.653938 -0.151923
-0.728708 0.663536 -0.169422
-0.718514 0.669394 -0.18881
-0.709446 0.671964 -0.212488
-0.69974 0.672021 -0.242387
-0.687136 0.670655 -0.279404
-0.669183 0.669183 -0.323093
-0.643457 0.66911 -0.371827
-0.6074 0.672115 -0.42347
-0.557437 0.679835 -0.476538
-0.486685 0.693147 -0.531681
-0.379529 0.711849 -0.590956
-0.216808 0.747029 -0.628445
-0.946907 0.305161 0.101208
-0.81987 0.494152 0.289183
-0.659615 0.527077 0.535815
-0.436894 0.466716 0.76896
-0.209929 0.366244 0.906529
-0.0296148 0.271271 0.962047
0.104029 0.193156 0.975638
0.207965 0.125353 0.970071
0.298812 0.0568014 0.95262
0.391085 -0.0254555 0.920003
0.496959 -0.136805 0.856923
0.619175 -0.291829 0.729012
0.727897 -0.483581 0.486123
0.749306 -0.649771 0.12782
0.650192 -0.723013 -0.233459
0.481109 -0.717836 -0.503235
0.283944 -0.676678 -0.679325
0.0670836 -0.619093 -0.782447
-0.167718 -0.547232 -0.820005
-0.407498 -0.458407 -0.789816
-0.627344 -0.352319 -0.694486
-0.801392 -0.233621 -0.550628
-0.915928 -0.110604 -0.385801
-0.973645 0.00784401 -0.227936
-0.988739 0.113755 -0.0972414
-0.979324 0.202278 -0.00285806
-0.960321 0.273255 0.0558113
-0.939957 0.330549 0.0849591
-0.92058 0.379511 0.0922138
-0.901519 0.424439 0.0843537
-0.881569 0.467317 0.0667166
-0.860177 0.508143 0.0434284
-0.837719 0.545816 0.0176315
-0.815316 0.578953 -0.0085279
-0.794046 0.606926 -0.0336235
-0.774432 0.630128 -0.0565235
-0.756912 0.649002 -0.0766899
-0.74204 0.66362 -0.0947887
-0.730054 0.674049 -0.112605
-0.72064 0.680524 -0.132534