# vtk DataFile Version 2.0
tmp/0.000.00-10.000.000.001.0044.vtk
ASCII
DATASET UNSTRUCTURED_GRID
POINTS 5101 float
0 0 0
1 0 0
2 0 0
3 0 0
4 0 0
5 0 0
6 0 0
7 0 0
8 0 0
9 0 0
10 0 0
11 0 0
12 0 0
13 0 0
14 0 0
15 0 0
16 0 0
17 0 0
18 0 0
19 0 0
20 0 0
21 0 0
22 0 0
23 0 0
24 0 0
25 0 0
26 0 0
27 0 0
28 0 0
29 0 0
30 0 0
31 0 0
32 0 0
33 0 0
34 0 0
35 0 0
36 0 0
37 0 0
38 0 0
39 0 0
40 0 0
41 0 0
42 0 0
43 0 0
44 0 0
45 0 0
46 0 0
47 0 0
48 0 0
49 0 0
50 0 0
0.5 0.5 0
1.5 0.5 0
2.5 0.5 0
3.5 0.5 0
4.5 0.5 0
5.5 0.5 0
6.5 0.5 0
7.5 0.5 0
8.5 0.5 0
9.5 0.5 0
10.5 0.5 0
11.5 0.5 0
12.5 0.5 0
13.5 0.5 0
14.5 0.5 0
15.5 0.5 0
16.5 0.5 0
17.5 0.5 0
18.5 0.5 0
19.5 0.5 0
20.5 0.5 0
21.5 0.5 0
22.5 0.5 0
23.5 0.5 0
24.5 0.5 0
25.5 0.5 0
26.5 0.5 0
27.5 0.5 0
28.5 0.5 0
29.5 0.5 0
30.5 0.5 0
31.5 0.5 0
32.5 0.5 0
33.5 0.5 0
34.5 0.5 0
35.5 0.5 0
36.5 0.5 0
37.5 0.5 0
38.5 0.5 0
39.5 0.5 0
40.5 0.5 0
41.5 0.5 0
42.5 0.5 0
43.5 0.5 0
44.5 0.5 0
45.5 0.5 0
46.5 0.5 0
47.5 0.5 0
48.5 0.5 0
49.5 0.5 0
0 1 0
1 1 0
2 1 0
3 1 0
4 1 0
5 1 0
6 1 0
7 1 0
8 1 0
9 1 0
10 1 0
11 1 0
12 1 0
13 1 0
14 1 0
15 1 0
16 1 0
17 1 0
18 1 0
19 1 0
20 1 0
21 1 0
22 1 0
23 1 0
24 1 0
25 1 0
26 1 0
27 1 0
28 1 0
29 1 0
30 1 0
31 1 0
32 1 0
33 1 0
34 1 0
35 1 0
36 1 0
37 1 0
38 1 0
39 1 0
40 1 0
41 1 0
42 1 0
43 1 0
44 1 0
45 1 0
46 1 0
47 1 0
48 1 0
49 1 0
50 1 0
0.5 1.5 0
1.5 1.5 0
2.5 1.5 0
3.5 1.5 0
4.5 1.5 0
5.5 1.5 0
6.5 1.5 0
7.5 1.5 0
8.5 1.5 0
9.5 1.5 0
10.5 1.5 0
11.5 1.5 0
12.5 1.5 0
13.5 1.5 0
14.5 1.5 0
15.5 1.5 0
16.5 1.5 0
17.5 1.5 0
18.5 1.5 0
19.5 1.5 0
20.5 1.5 0
21.5 1.5 0
22.5 1.5 0
23.5 1.5 0
24.5 1.5 0
25.5 1.5 0
26.5 1.5 0
27.5 1.5 0
28.5 1.5 0
29.5 1.5 0
30.5 1.5 0
31.5 1.5 0
32.5 1.5 0
33.5 1.5 0
34.5 1.5 0
35.5 1.5 0
36.5 1.5 0
37.5 1.5 0
38.5 1.5 0
39.5 1.5 0
40.5 1.5 0
41.5 1.5 0
42.5 1.5 0
43.5 1.5 0
44.5 1.5 0
45.5 1.5 0
46.5 1.5 0
47.5 1.5 0
48.5 1.5 0
49.5 1.5 0
0 2 0
1 2 0
2 2 0
3 2 0
4 2 0
5 2 0
6 2 0
7 2 0
8 2 0
9 2 0
10 2 0
11 2 0
12 2 0
13 2 0
14 2 0
15 2 0
16 2 0
17 2 0
18 2 0
19 2 0
20 2 0
21 2 0
22 2 0
23 2 0
24 2 0
25 2 0
26 2 0
27 2 0
28 2 0
29 2 0
30 2 0
31 2 0
32 2 0
33 2 0
34 2 0
35 2 0
36 2 0
37 2 0
38 2 0
39 2 0
40 2 0
41 2 0
42 2 0
43 2 0
44 2 0
45 2 0
46 2 0
47 2 0
48 2 0
49 2 0
50 2 0
0.5 2.5 0
1.5 2.5 0
2.5 2.5 0
3.5 2.5 0
4.5 2.5 0
5.5 2.5 0
6.5 2.5 0
7.5 2.5 0
8.5 2.5 0
9.5 2.5 0
10.5 2.5 0
11.5 2.5 0
12.5 2.5 0
13.5 2.5 0
14.5 2.5 0
15.5 2.5 0
16.5 2.5 0
17.5 2.5 0
18.5 2.5 0
19.5 2.5 0
20.5 2.5 0
21.5 2.5 0
22.5 2.5 0
23.5 2.5 0
24.5 2.5 0
25.5 2.5 0
26.5 2.5 0
27.5 2.5 0
28.5 2.5 0
29.5 2.5 0
30.5 2.5 0
31.5 2.5 0
32.5 2.5 0
33.5 2.5 0
34.5 2.5 0
35.5 2.5 0
36.5 2.5 0
37.5 2.5 0
38.5 2.5 0
39.5 2.5 0
40.5 2.5 0
41.5 2.5 0
42.5 2.5 0
43.5 2.5 0
44.5 2.5 0
45.5 2.5 0
46.5 2.5 0
47.5 2.5 0
48.5 2.5 0
49.5 2.5 0
0 3 0
1 3 0
2 3 0
3 3 0
4 3 0
5 3 0
6 3 0
7 3 0
8 3 0
9 3 0
10 3 0
11 3 0
12 3 0
13 3 0
14 3 0
15 3 0
16 3 0
17 3 0
18 3 0
19 3 0
20 3 0
21 3 0
22 3 0
23 3 0
24 3 0
25 3 0
26 3 0
27 3 0
28 3 0
29 3 0
30 3 0
31 3 0
32 3 0
33 3 0
34 3 0
35 3 0
36 3 0
37 3 0
38 3 0
39 3 0
40 3 0
41 3 0
42 3 0
43 3 0
44 3 0
45 3 0
46 3 0
47 3 0
48 3 0
49 3 0
50 3 0
0.5 3.5 0
1.5 3.5 0
2.5 3.5 0
3.5 3.5 0
4.5 3.5 0
5.5 3.5 0
6.5 3.5 0
7.5 3.5 0
8.5 3.5 0
9.5 3.5 0
10.5 3.5 0
11.5 3.5 0
12.5 3.5 0
13.5 3.5 0
14.5 3.5 0
15.5 3.5 0
16.5 3.5 0
17.5 3.5 0
18.5 3.5 0
19.5 3.5 0
20.5 3.5 0
21.5 3.5 0
22.5 3.5 0
23.5 3.5 0
24.5 3.5 0
25.5 3.5 0
26.5 3.5 0
27.5 3.5 0
28.5 3.5 0
29.5 3.5 0
30.5 3.5 0
31.5 3.5 0
32.5 3.5 0
33.5 3.5 0
34.5 3.5 0
35.5 3.5 0
36.5 3.5 0
37.5 3.5 0
38.5 3.5 0
39.5 3.5 0
40.5 3.5 0
41.5 3.5 0
42.5 3.5 0
43.5 3.5 0
44.5 3.5 0
45.5 3.5 0
46.5 3.5 0
47.5 3.5 0
48.5 3.5 0
49.5 3.5 0
0 4 0
1 4 0
2 4 0
3 4 0
4 4 0
5 4 0
6 4 0
7 4 0
8 4 0
9 4 0
10 4 0
11 4 0
12 4 0
13 4 0
14 4 0
15 4 0
16 4 0
17 4 0
18 4 0
19 4 0
20 4 0
21 4 0
22 4 0
23 4 0
24 4 0
25 4 0
26 4 0
27 4 0
28 4 0
29 4 0
30 4 0
31 4 0
32 4 0
33 4 0
34 4 0
35 4 0
36 4 0
37 4 0
38 4 0
39 4 0
40 4 0
41 4 0
42 4 0
43 4 0
44 4 0
45 4 0
46 4 0
47 4 0
48 4 0
49 4 0
50 4 0
0.5 4.5 0
1.5 4.5 0
2.5 4.5 0
3.5 4.5 0
4.5 4.5 0
5.5 4.5 0
6.5 4.5 0
7.5 4.5 0
8.5 4.5 0
9.5 4.5 0
10.5 4.5 0
11.5 4.5 0
12.5 4.5 0
13.5 4.5 0
14.5 4.5 0
15.5 4.5 0
16.5 4.5 0
17.5 4.5 0
18.5 4.5 0
19.5 4.5 0
20.5 4.5 0
21.5 4.5 0
22.5 4.5 0
23.5 4.5 0
24.5 4.5 0
25.5 4.5 0
26.5 4.5 0
27.5 4.5 0
28.5 4.5 0
29.5 4.5 0
30.5 4.5 0
31.5 4.5 0
32.5 4.5 0
33.5 4.5 0
34.5 4.5 0
35.5 4.5 0
36.5 4.5 0
37.5 4.5 0
38.5 4.5 0
39.5 4.5 0
40.5 4.5 0
41.5 4.5 0
42.5 4.5 0
43.5 4.5 0
44.5 4.5 0
45.5 4.5 0
46.5 4.5 0
47.5 4.5 0
48.5 4.5 0
49.5 4.5 0
0 5 0
1 5 0
2 5 0
3 5 0
4 5 0
5 5 0
6 5 0
7 5 0
8 5 0
9 5 0
10 5 0
11 5 0
12 5 0
13 5 0
14 5 0
15 5 0
16 5 0
17 5 0
18 5 0
19 5 0
20 5 0
21 5 0
22 5 0
23 5 0
24 5 0
25 5 0
26 5 0
27 5 0
28 5 0
29 5 0
30 5 0
31 5 0
32 5 0
33 5 0
34 5 0
35 5 0
36 5 0
37 5 0
38 5 0
39 5 0
40 5 0
41 5 0
42 5 0
43 5 0
44 5 0
45 5 0
46 5 0
47 5 0
48 5 0
49 5 0
50 5 0
0.5 5.5 0
1.5 5.5 0
2.5 5.5 0
3.5 5.5 0
4.5 5.5 0
5.5 5.5 0
6.5 5.5 0
7.5 5.5 0
8.5 5.5 0
9.5 5.5 0
10.5 5.5 0
11.5 5.5 0
12.5 5.5 0
13.5 5.5 0
14.5 5.5 0
15.5 5.5 0
16.5 5.5 0
17.5 5.5 0
18.5 5.5 0
19.5 5.5 0
20.5 5.5 0
21.5 5.5 0
22.5 5.5 0
23.5 5.5 0
24.5 5.5 0
25.5 5.5 0
26.5 5.5 0
27.5 5.5 0
28.5 5.5 0
29.5 5.5 0
30.5 5.5 0
31.5 5.5 0
32.5 5.5 0
33.5 5.5 0
34.5 5.5 0
35.5 5.5 0
36.5 5.5 0
37.5 5.5 0
38.5 5.5 0
39.5 5.5 0
40.5 5.5 0
41.5 5.5 0
42.5 5.5 0
43.5 5.5 0
44.5 5.5 0
45.5 5.5 0
46.5 5.5 0
47.5 5.5 0
48.5 5.5 0
49.5 5.5 0
0 6 0
1 6 0
2 6 0
3 6 0
4 6 0
5 6 0
6 6 0
7 6 0
8 6 0
9 6 0
10 6 0
11 6 0
12 6 0
13 6 0
14 6 0
15 6 0
16 6 0
17 6 0
18 6 0
19 6 0
20 6 0
21 6 0
22 6 0
23 6 0
24 6 0
25 6 0
26 6 0
27 6 0
28 6 0
29 6 0
30 6 0
31 6 0
32 6 0
33 6 0
34 6 0
35 6 0
36 6 0
37 6 0
38 6 0
39 6 0
40 6 0
41 6 0
42 6 0
43 6 0
44 6 0
45 6 0
46 6 0
47 6 0
48 6 0
49 6 0
50 6 0
0.5 6.5 0
1.5 6.5 0
2.5 6.5 0
3.5 6.5 0
4.5 6.5 0
5.5 6.5 0
6.5 6.5 0
7.5 6.5 0
8.5 6.5 0
9.5 6.5 0
10.5 6.5 0
11.5 6.5 0
12.5 6.5 0
13.5 6.5 0
14.5 6.5 0
15.5 6.5 0
16.5 6.5 0
17.5 6.5 0
18.5 6.5 0
19.5 6.5 0
20.5 6.5 0
21.5 6.5 0
22.5 6.5 0
23.5 6.5 0
24.5 6.5 0
25.5 6.5 0
26.5 6.5 0
27.5 6.5 0
28.5 6.5 0
29.5 6.5 0
30.5 6.5 0
31.5 6.5 0
32.5 6.5 0
33.5 6.5 0
34.5 6.5 0
35.5 6.5 0
36.5 6.5 0
37.5 6.5 0
38.5 6.5 0
39.5 6.5 0
40.5 6.5 0
41.5 6.5 0
42.5 6.5 0
43.5 6.5 0
44.5 6.5 0
45.5 6.5 0
46.5 6.5 0
47.5 6.5 0
48.5 6.5 0
49.5 6.5 0
0 7 0
1 7 0
2 7 0
3 7 0
4 7 0
5 7 0
6 7 0
7 7 0
8 7 0
9 7 0
10 7 0
11 7 0
12 7 0
13 7 0
14 7 0
15 7 0
16 7 0
17 7 0
18 7 0
19 7 0
20 7 0
21 7 0
22 7 0
23 7 0
24 7 0
25 7 0
26 7 0
27 7 0
28 7 0
29 7 0
30 7 0
31 7 0
32 7 0
33 7 0
34 7 0
35 7 0
36 7 0
37 7 0
38 7 0
39 7 0
40 7 0
41 7 0
42 7 0
43 7 0
44 7 0
45 7 0
46 7 0
47 7 0
48 7 0
49 7 0
50 7 0
0.5 7.5 0
1.5 7.5 0
2.5 7.5 0
3.5 7.5 0
4.5 7.5 0
5.5 7.5 0
6.5 7.5 0
7.5 7.5 0
8.5 7.5 0
9.5 7.5 0
10.5 7.5 0
11.5 7.5 0
12.5 7.5 0
13.5 7.5 0
14.5 7.5 0
15.5 7.5 0
16.5 7.5 0
17.5 7.5 0
18.5 7.5 0
19.5 7.5 0
20.5 7.5 0
21.5 7.5 0
22.5 7.5 0
23.5 7.5 0
24.5 7.5 0
25.5 7.5 0
26.5 7.5 0
27.5 7.5 0
28.5 7.5 0
29.5 7.5 0
30.5 7.5 0
31.5 7.5 0
32.5 7.5 0
33.5 7.5 0
34.5 7.5 0
35.5 7.5 0
36.5 7.5 0
37.5 7.5 0
38.5 7.5 0
39.5 7.5 0
40.5 7.5 0
41.5 7.5 0
42.5 7.5 0
43.5 7.5 0
44.5 7.5 0
45.5 7.5 0
46.5 7.5 0
47.5 7.5 0
48.5 7.5 0
49.5 7.5 0
0 8 0
1 8 0
2 8 0
3 8 0
4 8 0
5 8 0
6 8 0
7 8 0
8 8 0
9 8 0
10 8 0
11 8 0
12 8 0
13 8 0
14 8 0
15 8 0
16 8 0
17 8 0
18 8 0
19 8 0
20 8 0
21 8 0
22 8 0
23 8 0
24 8 0
25 8 0
26 8 0
27 8 0
28 8 0
29 8 0
30 8 0
31 8 0
32 8 0
33 8 0
34 8 0
35 8 0
36 8 0
37 8 0
38 8 0
39 8 0
40 8 0
41 8 0
42 8 0
43 8 0
44 8 0
45 8 0
46 8 0
47 8 0
48 8 0
49 8 0
50 8 0
0.5 8.5 0
1.5 8.5 0
2.5 8.5 0
3.5 8.5 0
4.5 8.5 0
5.5 8.5 0
6.5 8.5 0
7.5 8.5 0
8.5 8.5 0
9.5 8.5 0
10.5 8.5 0
11.5 8.5 0
12.5 8.5 0
13.5 8.5 0
14.5 8.5 0
15.5 8.5 0
16.5 8.5 0
17.5 8.5 0
18.5 8.5 0
19.5 8.5 0
20.5 8.5 0
21.5 8.5 0
22.5 8.5 0
23.5 8.5 0
24.5 8.5 0
25.5 8.5 0
26.5 8.5 0
27.5 8.5 0
28.5 8.5 0
29.5 8.5 0
30.5 8.5 0
31.5 8.5 0
32.5 8.5 0
33.5 8.5 0
34.5 8.5 0
35.5 8.5 0
36.5 8.5 0
37.5 8.5 0
38.5 8.5 0
39.5 8.5 0
40.5 8.5 0
41.5 8.5 0
42.5 8.5 0
43.5 8.5 0
44.5 8.5 0
45.5 8.5 0
46.5 8.5 0
47.5 8.5 0
48.5 8.5 0
49.5 8.5 0
0 9 0
1 9 0
2 9 0
3 9 0
4 9 0
5 9 0
6 9 0
7 9 0
8 9 0
9 9 0
10 9 0
11 9 0
12 9 0
13 9 0
14 9 0
15 9 0
16 9 0
17 9 0
18 9 0
19 9 0
20 9 0
21 9 0
22 9 0
23 9 0
24 9 0
25 9 0
26 9 0
27 9 0
28 9 0
29 9 0
30 9 0
31 9 0
32 9 0
33 9 0
34 9 0
35 9 0
36 9 0
37 9 0
38 9 0
39 9 0
40 9 0
41 9 0
42 9 0
43 9 0
44 9 0
45 9 0
46 9 0
47 9 0
48 9 0
49 9 0
50 9 0
0.5 9.5 0
1.5 9.5 0
2.5 9.5 0
3.5 9.5 0
4.5 9.5 0
5.5 9.5 0
6.5 9.5 0
7.5 9.5 0
8.5 9.5 0
9.5 9.5 0
10.5 9.5 0
11.5 9.5 0
12.5 9.5 0
13.5 9.5 0
14.5 9.5 0
15.5 9.5 0
16.5 9.5 0
17.5 9.5 0
18.5 9.5 0
19.5 9.5 0
20.5 9.5 0
21.5 9.5 0
22.5 9.5 0
23.5 9.5 0
24.5 9.5 0
25.5 9.5 0
26.5 9.5 0
27.5 9.5 0
28.5 9.5 0
29.5 9.5 0
30.5 9.5 0
31.5 9.5 0
32.5 9.5 0
33.5 9.5 0
34.5 9.5 0
35.5 9.5 0
36.5 9.5 0
37.5 9.5 0
38.5 9.5 0
39.5 9.5 0
40.5 9.5 0
41.5 9.5 0
42.5 9.5 0
43.5 9.5 0
44.5 9.5 0
45.5 9.5 0
46.5 9.5 0
47.5 9.5 0
48.5 9.5 0
49.5 9.5 0
0 10 0
1 10 0
2 10 0
3 10 0
4 10 0
5 10 0
6 10 0
7 10 0
8 10 0
9 10 0
10 10 0
11 10 0
12 10 0
13 10 0
14 10 0
15 10 0
16 10 0
17 10 0
18 10 0
19 10 0
20 10 0
21 10 0
22 10 0
23 10 0
24 10 0
25 10 0
26 10 0
27 10 0
28 10 0
29 10 0
30 10 0
31 10 0
32 10 0
33 10 0
34 10 0
35 10 0
36 10 0
37 10 0
38 10 0
39 10 0
40 10 0
41 10 0
42 10 0
43 10 0
44 10 0
45 10 0
46 10 0
47 10 0
48 10 0
49 10 0
50 10 0
0.5 10.5 0
1.5 10.5 0
2.5 10.5 0
3.5 10.5 0
4.5 10.5 0
5.5 10.5 0
6.5 10.5 0
7.5 10.5 0
8.5 10.5 0
9.5 10.5 0
10.5 10.5 0
11.5 10.5 0
12.5 10.5 0
13.5 10.5 0
14.5 10.5 0
15.5 10.5 0
16.5 10.5 0
17.5 10.5 0
18.5 10.5 0
19.5 10.5 0
20.5 10.5 0
21.5 10.5 0
22.5 10.5 0
23.5 10.5 0
24.5 10.5 0
25.5 10.5 0
26.5 10.5 0
27.5 10.5 0
28.5 10.5 0
29.5 10.5 0
30.5 10.5 0
31.5 10.5 0
32.5 10.5 0
33.5 10.5 0
34.5 10.5 0
35.5 10.5 0
36.5 10.5 0
37.5 10.5 0
38.5 10.5 0
39.5 10.5 0
40.5 10.5 0
41.5 10.5 0
42.5 10.5 0
43.5 10.5 0
44.5 10.5 0
45.5 10.5 0
46.5 10.5 0
47.5 10.5 0
48.5 10.5 0
49.5 10.5 0
0 11 0
1 11 0
2 11 0
3 11 0
[...]
POINT_DATA 5101
VECTORS velocity float
-0.102956 -0.102956 0.989343
-0.149875 -0.175973 0.972919
-0.234244 -0.222741 0.946317
-0.171215 -0.262208 0.949701
-0.0454836 -0.403013 0.914063
0.0801039 -0.630173 0.772312
0.152252 -0.848229 0.507273
0.152922 -0.967503 0.201376
0.107463 -0.992725 -0.0543041
0.044939 -0.970591 -0.236505
-0.0198721 -0.933265 -0.358639
-0.0815128 -0.894894 -0.438771
-0.138533 -0.859801 -0.491479
-0.191543 -0.827344 -0.528028
-0.242937 -0.793901 -0.557407
-0.296962 -0.753523 -0.58653
-0.359229 -0.698196 -0.619254
-0.434739 -0.618801 -0.654284
-0.523917 -0.508719 -0.683166
-0.61889 -0.370977 -0.692352
-0.706019 -0.222616 -0.672294
-0.77525 -0.0866039 -0.62569
-0.825394 0.0221023 -0.564124
-0.860705 0.100679 -0.49905
-0.885984 0.153461 -0.437587
-0.904634 0.186692 -0.383124
-0.918668 0.206088 -0.337012
-0.92919 0.216252 -0.299736
-0.936775 0.220761 -0.271508
-0.941699 0.222375 -0.252491
-0.944047 0.223184 -0.242826
-0.943766 0.224679 -0.242538
-0.940707 0.227791 -0.25136
-0.934671 0.232939 -0.268571
-0.925499 0.24013 -0.292899
-0.913189 0.249076 -0.322564
-0.898004 0.259312 -0.355453
-0.880522 0.27031 -0.389377
-0.861597 0.281575 -0.422333
-0.842236 0.292745 -0.452703
-0.823417 0.303656 -0.479351
-0.805926 0.314381 -0.501644
-0.7902 0.325215 -0.519442
-0.776209 0.336662 -0.533064
-0.763371 0.349485 -0.543255
-0.750451 0.364782 -0.551141
-0.735337 0.384057 -0.558373
-0.714275 0.409112 -0.567837
-0.679641 0.441315 -0.585943
-0.614806 0.477295 -0.627856
-0.498049 0.498049 -0.709856
-0.22793 -0.22793 0.946623
-0.311639 -0.323179 0.893553
-0.242546 -0.371554 0.896169
-0.0782638 -0.489204 0.868651
0.104623 -0.657631 0.746039
0.242641 -0.814454 0.527057
0.308751 -0.914407 0.261787
0.310277 -0.950633 0.00502133
0.267436 -0.939921 -0.212197
0.198403 -0.903055 -0.380956
0.115792 -0.856011 -0.503822
0.0278508 -0.808674 -0.587598
-0.0600998 -0.765839 -0.640218
-0.145041 -0.728376 -0.66965
-0.226159 -0.694163 -0.683367
-0.304792 -0.658844 -0.687769
-0.383989 -0.616473 -0.687396
-0.467281 -0.560277 -0.683914
-0.556422 -0.484189 -0.675245
-0.648645 -0.385914 -0.655996
-0.735908 -0.270678 -0.620624
-0.808755 -0.151526 -0.568292
-0.862279 -0.0433363 -0.504575
-0.897906 0.0444514 -0.437938
-0.920349 0.109804 -0.375368
-0.93426 0.155517 -0.320894
-0.942878 0.186163 -0.27627
-0.948068 0.206342 -0.242055
-0.950751 0.220008 -0.218332
-0.951277 0.230302 -0.20502
-0.94966 0.239541 -0.201906
-0.945721 0.24925 -0.208535
-0.939188 0.260236 -0.224059
-0.929812 0.272715 -0.247135
-0.917491 0.286462 -0.275951
-0.902393 0.300982 -0.308378
-0.885012 0.315672 -0.342205
-0.866144 0.32996 -0.375394
-0.846761 0.343426 -0.406268
-0.827841 0.355883 -0.43362
-0.810193 0.367397 -0.456734
-0.794313 0.37825 -0.475388
-0.780257 0.388922 -0.489835
-0.767549 0.400134 -0.500761
-0.755095 0.412956 -0.509214
-0.74102 0.428948 -0.516616
-0.722144 0.450194 -0.525199
-0.692468 0.478878 -0.539597
-0.639848 0.514914 -0.570489
-0.547616 0.547616 -0.63264
-0.175973 -0.149875 0.972919
-0.344161 -0.344161 0.87356
-0.289628 -0.385177 0.876216
-0.114708 -0.467673 0.876427
0.100094 -0.595549 0.797059
0.280913 -0.72577 0.627969
0.395238 -0.826382 0.401099
0.441403 -0.884092 0.153441
0.42948 -0.899071 -0.0849582
0.373093 -0.880354 -0.29288
0.2866 -0.841113 -0.458682
0.183268 -0.794098 -0.5795
0.0738925 -0.748643 -0.658843
-0.0339275 -0.709638 -0.703749
-0.135907 -0.677919 -0.722464
-0.230804 -0.651258 -0.722905
-0.319895 -0.625381 -0.711734
-0.406222 -0.594753 -0.693723
-0.493407 -0.553202 -0.671206
-0.583803 -0.494824 -0.643679
-0.676157 -0.415907 -0.608139
-0.764271 -0.317934 -0.561078
-0.839169 -0.20951 -0.501898
-0.894483 -0.103711 -0.434906
-0.929992 -0.01176 -0.367392
-0.950087 0.0612264 -0.305918
-0.960137 0.11578 -0.254426
-0.964267 0.155444 -0.214539
-0.964947 0.184574 -0.186573
-0.963369 0.207182 -0.170284
-0.95991 0.226469 -0.165181
-0.954482 0.2447 -0.170545
-0.946767 0.263227 -0.185323
-0.936406 0.282608 -0.208029
-0.923183 0.302786 -0.236757
-0.907171 0.32328 -0.269316
-0.888815 0.3434 -0.303454
-0.868908 0.362441 -0.337099
-0.848457 0.379856 -0.368552
-0.828496 0.39537 -0.396581
-0.809901 0.409002 -0.42045
-0.793238 0.421008 -0.439915
-0.778644 0.431834 -0.455228
-0.765724 0.442149 -0.467088
-0.753473 0.452974 -0.476543
-0.740159 0.465865 -0.484907
-0.722975 0.483052 -0.493932
-0.697068 0.507296 -0.506702
-0.653684 0.540773 -0.529397
-0.580651 0.580651 -0.570691
-0.477295 0.614806 -0.627856
-0.323179 -0.311639 0.893553
-0.340403 -0.340403 0.8765
-0.174654 -0.375363 0.910274
0.068686 -0.463957 0.883191
0.29217 -0.575962 0.763482
0.449875 -0.6827 0.575789
0.537222 -0.768126 0.348389
0.559304 -0.822407 0.104043
0.523172 -0.841702 -0.133523
0.440714 -0.830294 -0.34115
0.328643 -0.799132 -0.503371
0.20396 -0.760651 -0.616287
0.0795124 -0.724024 -0.685176
-0.037465 -0.693502 -0.71948
-0.144527 -0.669135 -0.728952
-0.242565 -0.648181 -0.72182
-0.334558 -0.626235 -0.704202
-0.424531 -0.597872 -0.679942
-0.516337 -0.557079 -0.65043
-0.611809 -0.49807 -0.614505
-0.708445 -0.417346 -0.569146
-0.798451 -0.31703 -0.511828
-0.8719 -0.206792 -0.443877
-0.922977 -0.100486 -0.371505
-0.953027 -0.00917523 -0.302745
-0.967819 0.062871 -0.243668
-0.973344 0.117075 -0.197217
-0.973776 0.157574 -0.164103
-0.971369 0.188985 -0.143972
-0.967021 0.215304 -0.136068
-0.960832 0.239507 -0.139422
-0.952485 0.26349 -0.152795
-0.941533 0.288164 -0.174576
-0.927638 0.313643 -0.202771
-0.910765 0.339451 -0.235117
-0.891304 0.364776 -0.269289
-0.870058 0.388716 -0.30315
-0.84811 0.410506 -0.334954
-0.826603 0.429693 -0.363444
-0.806528 0.446173 -0.38787
-0.788563 0.460119 -0.407995
-0.772949 0.471897 -0.424102
-0.759388 0.482083 -0.436951
-0.74696 0.491579 -0.447661
-0.73405 0.501814 -0.457551
-0.718132 0.514934 -0.468112
-0.695189 0.533834 -0.481387
-0.658692 0.561667 -0.500655
-0.600136 0.600136 -0.528841
-0.514914 0.639848 -0.570489
-0.222741 -0.234244 0.946317
-0.385177 -0.289628 0.876216
-0.266739 -0.266739 0.926121
-0.0101161 -0.300385 0.953765
0.25665 -0.381986 0.887816
0.458654 -0.482739 0.746056
0.589236 -0.58544 0.556831
0.655273 -0.678259 0.332538
0.657074 -0.748916 0.0859032
0.5958 -0.787309 -0.15864
0.484387 -0.792478 -0.370604
0.346328 -0.774249 -0.529712
0.203987 -0.746147 -0.633762
0.0705554 -0.71794 -0.69252
-0.0496912 -0.693638 -0.718608
-0.157847 -0.672935 -0.722664
-0.257485 -0.652997 -0.712248
-0.353067 -0.629515 -0.692138
-0.448983 -0.597153 -0.664697
-0.548382 -0.549922 -0.62997
-0.651199 -0.482343 -0.585905
-0.752025 -0.392269 -0.529702
-0.840561 -0.284632 -0.460915
-0.907073 -0.171951 -0.384254
-0.948807 -0.0685209 -0.308336
-0.970338 0.016823 -0.241168
-0.978827 0.082631 -0.187272
-0.980113 0.132207 -0.147989
-0.97766 0.170475 -0.122964
-0.973026 0.202116 -0.111222
-0.966586 0.230788 -0.111574
-0.958081 0.258927 -0.12263
-0.946998 0.287806 -0.142694
-0.932872 0.317721 -0.169714
-0.91553 0.34822 -0.201365
-0.89526 0.378377 -0.235246
-0.87284 0.407089 -0.269124
-0.849413 0.433355 -0.301166
-0.82624 0.456504 -0.330047
-0.804461 0.476273 -0.354976
-0.784904 0.492721 -0.375702
-0.767958 0.506119 -0.392534
-0.753453 0.516935 -0.406307
-0.740579 0.52594 -0.418246
-0.727827 0.534394 -0.429758
-0.712876 0.544256 -0.442259
-0.692279 0.558289 -0.457234
-0.660905 0.579851 -0.476422
-0.61222 0.61222 -0.500373
-0.540773 0.653684 -0.529397
-0.441315 0.679641 -0.585943
-0.371554 -0.242546 0.896169
-0.375363 -0.174654 0.910274
-0.139097 -0.139097 0.980461
0.162402 -0.174631 0.971149
0.408008 -0.254534 0.876779
0.577958 -0.35468 0.73496
0.688351 -0.464517 0.557133
0.743412 -0.575818 0.340254
0.733023 -0.674286 0.0895288
0.650237 -0.741214 -0.166716
0.511439 -0.767588 -0.386314
0.350864 -0.762543 -0.543528
0.196152 -0.742643 -0.640318
0.0582125 -0.719536 -0.692011
-0.0633009 -0.697721 -0.713568
-0.173066 -0.677017 -0.71533
-0.276532 -0.654717 -0.703474
-0.378652 -0.626555 -0.681213
-0.483214 -0.587077 -0.649496
-0.591623 -0.530262 -0.607292
-0.700823 -0.451441 -0.552312
-0.801993 -0.351072 -0.483277
-0.883579 -0.237984 -0.4033
-0.938641 -0.126928 -0.32069
-0.969034 -0.0305923 -0.245026
-0.982094 0.0459043 -0.182713
-0.985204 0.104163 -0.136102
-0.983249 0.148963 -0.105031
-0.978659 0.185525 -0.0883596
-0.972226 0.218185 -0.084688
-0.963831 0.249955 -0.0924841
-0.952938 0.282514 -0.109981
-0.938965 0.316376 -0.135096
-0.921586 0.351142 -0.165466
-0.900946 0.385804 -0.198623
-0.877746 0.419079 -0.23224
-0.853136 0.449742 -0.26437
-0.828473 0.476907 -0.293584
-0.805038 0.500147 -0.319008
-0.783831 0.519406 -0.340333
-0.765421 0.534852 -0.35786
-0.74981 0.546847 -0.372482
-0.736333 0.556035 -0.385538
-0.723605 0.563508 -0.398566
-0.70947 0.571011 -0.413036
-0.690857 0.581074 -0.430196
-0.663512 0.596929 -0.45103
-0.622116 0.622116 -0.475335
-0.561667 0.658692 -0.500655
-0.478878 0.692468 -0.539597
-0.262208 -0.171215 0.949701
-0.467673 -0.114708 0.876427
-0.300385 -0.0101161 0.953765
0.014004 0.014004 0.999804
0.302251 -0.0356156 0.952563
0.506978 -0.120677 0.85347
0.649342 -0.223617 0.726878
0.748791 -0.341962 0.56778
0.802732 -0.473745 0.362197
0.789233 -0.604564 0.107767
0.690692 -0.704561 -0.162906
0.528416 -0.752803 -0.392511
0.350146 -0.758538 -0.549561
0.187304 -0.743643 -0.641804
0.0465023 -0.722638 -0.689661
-0.0772387 -0.700826 -0.709138
-0.191107 -0.678225 -0.709569
-0.301301 -0.652117 -0.695673
-0.412364 -0.618017 -0.669336
-0.526704 -0.570163 -0.630474
-0.643186 -0.502683 -0.5776
-0.755248 -0.41255 -0.509316
-0.851476 -0.303883 -0.427367
-0.92156 -0.189221 -0.339002
-0.963388 -0.0835986 -0.254744
-0.983086 0.00365594 -0.183109
-0.989209 0.0713195 -0.127979
-0.988304 0.123329 -0.0896971
-0.983977 0.165212 -0.0670433
-0.977647 0.201981 -0.0583953
-0.969452 0.237301 -0.0620536
-0.958898 0.273334 -0.0761727
-0.945317 0.310878 -0.0986441
-0.928227 0.349631 -0.127091
-0.907611 0.388535 -0.159004
-0.884048 0.426153 -0.191972
-0.858649 0.461056 -0.22394
-0.832818 0.492162 -0.253359
-0.807947 0.518894 -0.279233
-0.785195 0.541088 -0.301151
-0.765328 0.558821 -0.319362
-0.748554 0.572353 -0.334781
-0.734396 0.582207 -0.348852
-0.721624 0.589321 -0.363263
-0.708233 0.595232 -0.379612
-0.691404 0.602218 -0.399117
-0.667432 0.613268 -0.422417
-0.631801 0.631801 -0.44906
-0.579851 0.660905 -0.476422
-0.507296 0.697068 -0.506702
-0.409112 0.714275 -0.567837
-0.489204 -0.0782638 0.868651
-0.463957 0.068686 0.883191
-0.174631 0.162402 0.971149
0.152245 0.152245 0.976546
0.395183 0.084338 0.914723
0.56154 -0.00469793 0.827436
0.684227 -0.108038 0.721222
0.779011 -0.231499 0.582709
0.838237 -0.380476 0.390636
0.829217 -0.542637 0.133958
0.721217 -0.675821 -0.152025
0.540365 -0.744049 -0.392935
0.348781 -0.757769 -0.551487
0.179918 -0.745666 -0.641569
0.0356451 -0.725276 -0.687535
-0.0925443 -0.702565 -0.705577
-0.213137 -0.677548 -0.703918
-0.332238 -0.647234 -0.68608
-0.453388 -0.606676 -0.65298
-0.57702 -0.549791 -0.603969
-0.698892 -0.471348 -0.537941
-0.809136 -0.370968 -0.455722
-0.895625 -0.256949 -0.363089
-0.951801 -0.144278 -0.270665
-0.980885 -0.0461978 -0.189026
-0.99174 0.0320744 -0.124189
-0.992684 0.0925958 -0.0774853
-0.988891 0.140756 -0.0477823
-0.982703 0.182186 -0.0332285
-0.974686 0.22129 -0.0319086
-0.964479 0.260821 -0.0418643
-0.951373 0.301951 -0.0609543
-0.934751 0.344538 -0.0867985
-0.914428 0.387509 -0.116868
-0.890838 0.429299 -0.148697
-0.865017 0.468292 -0.180134
-0.838372 0.503226 -0.209514
-0.812363 0.533395 -0.235705
-0.788276 0.55855 -0.258154
-0.767062 0.578689 -0.277009
-0.749155 0.593984 -0.293172
-0.734296 0.604851 -0.308163
-0.721448 0.612087 -0.323824
-0.708764 0.617041 -0.341926
-0.693609 0.62175 -0.363777
-0.672613 0.628938 -0.389908
-0.641798 0.641798 -0.419749
-0.596929 0.663512 -0.45103
-0.533834 0.695189 -0.481387
-0.450194 0.722144 -0.525199
-0.403013 -0.0454836 0.914063
-0.595549 0.100094 0.797059
-0.381986 0.25665 0.887816
-0.0356156 0.302251 0.952563
0.254516 0.254516 0.932975
0.449979 0.175223 0.87568
0.587108 0.086603 0.804863
0.696164 -0.0141403 0.717743
0.789311 -0.139017 0.598048
0.856636 -0.300159 0.419618
0.857004 -0.489074 0.162327
0.745205 -0.652374 -0.138123
0.550565 -0.737891 -0.390378
0.348694 -0.757833 -0.551454
0.174096 -0.747765 -0.640732
0.0247082 -0.727767 -0.685379
-0.110205 -0.70417 -0.701426
-0.239562 -0.676753 -0.696144
-0.368861 -0.642018 -0.672127
-0.500182 -0.594446 -0.629645
-0.63142 -0.527855 -0.568047
-0.754939 -0.43846 -0.487668
-0.858561 -0.329506 -0.392809
-0.93192 -0.213231 -0.293357
-0.973831 -0.105171 -0.201475
-0.991937 -0.0152156 -0.125814
-0.996047 0.0554603 -0.0693868
-0.993288 0.111303 -0.0314769
-0.987334 0.158335 -0.0100409
-0.979433 0.201749 -0.00288865
-0.969487 0.245015 -0.00789306
-0.956816 0.289794 -0.0228527
-0.940702 0.336185 -0.0453842
-0.920801 0.383148 -0.0729581
-0.897397 0.429015 -0.103074
-0.871432 0.471997 -0.13351
-0.844285 0.510662 -0.1625
-0.817443 0.544199 -0.188772
-0.792275 0.572297 -0.211606
-0.769892 0.594896 -0.231009
-0.750946 0.612096 -0.247827
-0.735422 0.624223 -0.263628
-0.722502 0.631958 -0.280393
-0.710515 0.636485 -0.300092
-0.696975 0.639626 -0.324198
-0.678716 0.643849 -0.353275
-0.652098 0.652098 -0.386699
-0.613268 0.667432 -0.422417
-0.558289 0.692279 -0.457234
-0.483052 0.722975 -0.493932
-0.384057 0.735337 -0.558373
-0.657631 0.104623 0.746039
-0.575962 0.29217 0.763482
-0.254534 0.408008 0.876779
0.084338 0.395183 0.914723
0.322965 0.322965 0.889599
0.480354 0.240566 0.843438
0.596393 0.155504 0.787486
0.695802 0.0589785 0.715808
0.788563 -0.064843 0.611525
0.864441 -0.233413 0.445264
0.87644 -0.443003 0.188685
0.765153 -0.631793 -0.124012
0.560684 -0.732305 -0.386474
0.350182 -0.757998 -0.550283
0.169143 -0.750246 -0.639157
0.0128344 -0.731041 -0.682212
-0.130701 -0.706832 -0.695202
-0.27028 -0.676977 -0.68458
-0.410405 -0.637335 -0.652205
-0.55118 -0.581853 -0.598037
-0.687399 -0.504771 -0.522196
-0.808204 -0.404802 -0.427717
-0.900971 -0.289488 -0.323183
-0.959525 -0.173899 -0.221518
-0.988337 -0.072038 -0.134164
-0.997723 0.0103955 -0.0666372
-0.996949 0.075655 -0.0192092
-0.991513 0.129609 0.0102022
-0.983704 0.178171 0.0241079
-0.973894 0.225637 0.024879
-0.961532 0.274292 0.0148237
-0.945851 0.324581 -0.00365699
-0.926374 0.37556 -0.0280421
-0.90324 0.42549 -0.0558171
-0.877292 0.472423 -0.0847101
-0.849868 0.514766 -0.112873
-0.822451 0.551617 -0.138903
-0.796448 0.582631 -0.161897
-0.773095 0.607712 -0.181686
-0.753247 0.626905 -0.19902
-0.737131 0.640471 -0.215485
-0.724173 0.648999 -0.233183
-0.712898 0.65354 -0.254286
-0.700957 0.655736 -0.280481
-0.685304 0.65782 -0.312461
-0.662487 0.662487 -0.349603
-0.628938 0.672613 -0.389908
-0.581074 0.690857 -0.430196
-0.514934 0.718132 -0.468112
-0.428948 0.74102 -0.516616
-0.630173 0.0801039 0.772312
-0.72577 0.280913 0.627969
-0.482739 0.458654 0.746056
-0.120677 0.506978 0.85347
0.175223 0.449979 0.87568
0.367383 0.367383 0.854435
0.496658 0.287033 0.819111
0.597555 0.20686 0.774685
0.690051 0.115025 0.714562
0.782992 -0.006381 0.621999
0.866742 -0.178644 0.465665
0.890635 -0.402948 0.21072
0.782644 -0.612455 -0.111207
0.571255 -0.726496 -0.381931
0.352844 -0.758367 -0.54807
0.164328 -0.753677 -0.63637
-0.000532601 -0.735796 -0.677203
-0.154238 -0.711126 -0.685938
-0.305114 -0.678481 -0.668258
-0.456202 -0.633015 -0.625438
-0.604962 -0.568391 -0.557631
-0.74266 -0.480135 -0.466827
-0.856169 -0.370621 -0.36002
-0.934974 -0.251668 -0.249975
-0.978737 -0.139269 -0.150595
-0.996527 -0.0441002 -0.0706342
-0.999401 0.0323915 -0.0122042
-0.995133 0.0949199 0.0264548
-0.987543 0.149799 0.0481583
-0.977768 0.202185 0.0556039
-0.965547 0.255126 0.0512745
-0.950142 0.309539 0.0376187
-0.930983 0.36466 0.0171497
-0.908082 0.418723 -0.00761697
-0.88219 0.469637 -0.0343768
-0.854608 0.515652 -0.0612209
-0.826794 0.555795 -0.0866251
-0.800157 0.589712 -0.109491
-0.776016 0.617287 -0.129447
-0.755405 0.63853 -0.147112
-0.738791 0.653662 -0.164056
-0.725849 0.663208 -0.182479
-0.715323 0.668125 -0.20475
-0.704999 0.66991 -0.232803
-0.691899 0.670601 -0.267524
-0.67265 0.67265 -0.308355
-0.643849 0.678716 -0.353275
-0.602218 0.691404 -0.399117
-0.544256 0.712876 -0.442259
-0.465865 0.740159 -0.484907
-0.364782 0.750451 -0.551141
-0.814454 0.242641 0.527057
-0.6827 0.449875 0.575789
-0.35468 0.577958 0.73496
-0.00469793 0.56154 0.827436
0.240566 0.480354 0.843438
0.396375 0.396375 0.828115
0.505299 0.320419 0.801252
0.595281 0.245381 0.765133
0.682854 0.158173 0.713227
0.776297 0.0398993 0.629103
0.866855 -0.133366 0.480391
0.901753 -0.367421 0.227691
0.798537 -0.593537 -0.100265
0.582218 -0.72035 -0.376984
0.356125 -0.759229 -0.544745
0.15907 -0.758419 -0.632058
-0.0158038 -0.742263 -0.669922
-0.181048 -0.717002 -0.673149
-0.344057 -0.680807 -0.646628
-0.505738 -0.628168 -0.591299
-0.660116 -0.553019 -0.508347
-0.794978 -0.453393 -0.403045
-0.896925 -0.33625 -0.287161
-0.960203 -0.216627 -0.176301
-0.99057 -0.109102 -0.0828695
-0.999731 -0.0199513 -0.011842
-0.99789 0.0529674 0.0375544
-0.99094 0.115649 0.0682806
-0.981212 0.173962 0.0834213
-0.968977 0.231812 0.0857182
-0.953644 0.290728 0.0777165
-0.934615 0.350228 0.0619329
-0.911808 0.408577 0.0408775
-0.885899 0.463571 0.0168759
-0.858165 0.513309 -0.00811946
-0.830038 0.556761 -0.0324767
-0.802893 0.59359 -0.0548911
-0.778097 0.62368 -0.0747567
-0.75684 0.647017 -0.0925345
-0.73981 0.663805 -0.109743
-0.726941 0.67454 -0.128652
-0.717209 0.68012 -0.151817
-0.708543 0.681945 -0.181434
-0.698005 0.6819 -0.218635
-0.682215 0.682215 -0.262993
-0.65782 0.685304 -0.312461
-0.62175 0.693609 -0.363777
-0.571011 0.70947 -0.413036
-0.501814 0.73405 -0.457551
-0.412956 0.755095 -0.509214
-0.848229 0.152252 0.507273
-0.826382 0.395238 0.401099
-0.58544 0.589236 0.556831
-0.223617 0.649342 0.726878
0.086603 0.587108 0.804863
0.287033 0.496658 0.819111
0.415801 0.415801 0.808838
0.509997 0.34498 0.787967
0.592066 0.274872 0.757564
0.676169 0.192093 0.711263
0.770307 0.0773603 0.632963
0.866578 -0.0950711 0.489903
0.911119 -0.335167 0.239845
0.813256 -0.574709 -0.0912385
0.59332 -0.713969 -0.371778
0.359512 -0.760741 -0.540393
0.152858 -0.76451 -0.626226
-0.0334666 -0.750259 -0.660296
-0.211593 -0.723943 -0.656609
-0.387336 -0.682999 -0.61926
-0.55851 -0.621494 -0.549374
-0.715019 -0.534612 -0.450486
-0.842194 -0.424341 -0.332631
-0.929307 -0.302343 -0.212076
-0.977186 -0.184727 -0.104799
-0.996393 -0.0825489 -0.0196514
-0.999108 0.0023718 0.0421728
-0.993726 0.074546 0.0833738
-0.984298 0.140078 0.107403
-0.971976 0.203696 0.117347
-0.956513 0.267671 0.115914
-0.937375 0.331915 0.105646
-0.914439 0.394804 0.0890503
-0.888338 0.454056 0.0684677
-0.860355 0.507626 0.0458797
-0.8319 0.554448 0.0230137
-0.80429 0.594235 0.00139433
-0.778906 0.626879 -0.0181082
-0.757068 0.652356 -0.0357633
-0.739675 0.670873 -0.0530073
-0.726917 0.682925 -0.072147
-0.718015 0.689389 -0.0959035
-0.711055 0.691619 -0.126742
-0.703124 0.691399 -0.166081
-0.690775 0.690775 -0.213683
-0.670601 0.691899 -0.267524
-0.639626 0.696975 -0.324198
-0.595232 0.708233 -0.379612
-0.534394 0.727827 -0.429758
-0.452974 0.753473 -0.476543
-0.349485 0.763371 -0.543255
-0.914407 0.308751 0.261787
-0.768126 0.537222 0.348389
-0.464517 0.688351 0.557133
-0.108038 0.684227 0.721222
0.155504 0.596393 0.787486
0.320419 0.505299 0.801252
0.429387 0.429387 0.794515
0.512836 0.363689 0.777644
0.589105 0.298196 0.751023
0.670747 0.219686 0.708404
0.765652 0.108775 0.633992
0.866669 -0.0616015 0.495065
0.919477 -0.305153 0.247877
0.827049 -0.555814 -0.0840288
0.604305 -0.707415 -0.366578
0.362527 -0.762868 -0.535356
0.145084 -0.771739 -0.619169
-0.0542861 -0.759322 -0.648446
-0.246679 -0.731104 -0.636111
-0.435329 -0.683764 -0.585624
-0.613758 -0.61154 -0.499318
-0.767685 -0.51237 -0.384886
-0.882429 -0.393382 -0.25801
-0.953056 -0.269709 -0.13763
-0.987087 -0.155798 -0.0372315
-0.997559 -0.0580541 0.0387934
-0.995425 0.0252137 0.0921566
-0.98697 0.0994569 0.126489
-0.974687 0.169947 0.145268
-0.958954 0.239736 0.15144
-0.939457 0.309244 0.147613
-0.916114 0.377042 0.136291
-0.889559 0.440821 0.119837