# vtk DataFile Version 2.0
tmp/0.000.00-10.000.000.001.0092.vtk
ASCII
DATASET UNSTRUCTURED_GRID
POINTS 5101 float
0 0 0
1 0 0
2 0 0
3 0 0
4 0 0
5 0 0
6 0 0
7 0 0
8 0 0
9 0 0
10 0 0
11 0 0
12 0 0
13 0 0
14 0 0
15 0 0
16 0 0
17 0 0
18 0 0
19 0 0
20 0 0
21 0 0
22 0 0
23 0 0
24 0 0
25 0 0
26 0 0
27 0 0
28 0 0
29 0 0
30 0 0
31 0 0
32 0 0
33 0 0
34 0 0
35 0 0
36 0 0
37 0 0
38 0 0
39 0 0
40 0 0
41 0 0
42 0 0
43 0 0
44 0 0
45 0 0
46 0 0
47 0 0
48 0 0
49 0 0
50 0 0
0.5 0.5 0
1.5 0.5 0
2.5 0.5 0
3.5 0.5 0
4.5 0.5 0
5.5 0.5 0
6.5 0.5 0
7.5 0.5 0
8.5 0.5 0
9.5 0.5 0
10.5 0.5 0
11.5 0.5 0
12.5 0.5 0
13.5 0.5 0
14.5 0.5 0
15.5 0.5 0
16.5 0.5 0
17.5 0.5 0
18.5 0.5 0
19.5 0.5 0
20.5 0.5 0
21.5 0.5 0
22.5 0.5 0
23.5 0.5 0
24.5 0.5 0
25.5 0.5 0
26.5 0.5 0
27.5 0.5 0
28.5 0.5 0
29.5 0.5 0
30.5 0.5 0
31.5 0.5 0
32.5 0.5 0
33.5 0.5 0
34.5 0.5 0
35.5 0.5 0
36.5 0.5 0
37.5 0.5 0
38.5 0.5 0
39.5 0.5 0
40.5 0.5 0
41.5 0.5 0
42.5 0.5 0
43.5 0.5 0
44.5 0.5 0
45.5 0.5 0
46.5 0.5 0
47.5 0.5 0
48.5 0.5 0
49.5 0.5 0
0 1 0
1 1 0
2 1 0
3 1 0
4 1 0
5 1 0
6 1 0
7 1 0
8 1 0
9 1 0
10 1 0
11 1 0
12 1 0
13 1 0
14 1 0
15 1 0
16 1 0
17 1 0
18 1 0
19 1 0
20 1 0
21 1 0
22 1 0
23 1 0
24 1 0
25 1 0
26 1 0
27 1 0
28 1 0
29 1 0
30 1 0
31 1 0
32 1 0
33 1 0
34 1 0
35 1 0
36 1 0
37 1 0
38 1 0
39 1 0
40 1 0
41 1 0
42 1 0
43 1 0
44 1 0
45 1 0
46 1 0
47 1 0
48 1 0
49 1 0
50 1 0
0.5 1.5 0
1.5 1.5 0
2.5 1.5 0
3.5 1.5 0
4.5 1.5 0
5.5 1.5 0
6.5 1.5 0
7.5 1.5 0
8.5 1.5 0
9.5 1.5 0
10.5 1.5 0
11.5 1.5 0
12.5 1.5 0
13.5 1.5 0
14.5 1.5 0
15.5 1.5 0
16.5 1.5 0
17.5 1.5 0
18.5 1.5 0
19.5 1.5 0
20.5 1.5 0
21.5 1.5 0
22.5 1.5 0
23.5 1.5 0
24.5 1.5 0
25.5 1.5 0
26.5 1.5 0
27.5 1.5 0
28.5 1.5 0
29.5 1.5 0
30.5 1.5 0
31.5 1.5 0
32.5 1.5 0
33.5 1.5 0
34.5 1.5 0
35.5 1.5 0
36.5 1.5 0
37.5 1.5 0
38.5 1.5 0
39.5 1.5 0
40.5 1.5 0
41.5 1.5 0
42.5 1.5 0
43.5 1.5 0
44.5 1.5 0
45.5 1.5 0
46.5 1.5 0
47.5 1.5 0
48.5 1.5 0
49.5 1.5 0
0 2 0
1 2 0
2 2 0
3 2 0
4 2 0
5 2 0
6 2 0
7 2 0
8 2 0
9 2 0
10 2 0
11 2 0
12 2 0
13 2 0
14 2 0
15 2 0
16 2 0
17 2 0
18 2 0
19 2 0
20 2 0
21 2 0
22 2 0
23 2 0
24 2 0
25 2 0
26 2 0
27 2 0
28 2 0
29 2 0
30 2 0
31 2 0
32 2 0
33 2 0
34 2 0
35 2 0
36 2 0
37 2 0
38 2 0
39 2 0
40 2 0
41 2 0
42 2 0
43 2 0
44 2 0
45 2 0
46 2 0
47 2 0
48 2 0
49 2 0
50 2 0
0.5 2.5 0
1.5 2.5 0
2.5 2.5 0
3.5 2.5 0
4.5 2.5 0
5.5 2.5 0
6.5 2.5 0
7.5 2.5 0
8.5 2.5 0
9.5 2.5 0
10.5 2.5 0
11.5 2.5 0
12.5 2.5 0
13.5 2.5 0
14.5 2.5 0
15.5 2.5 0
16.5 2.5 0
17.5 2.5 0
18.5 2.5 0
19.5 2.5 0
20.5 2.5 0
21.5 2.5 0
22.5 2.5 0
23.5 2.5 0
24.5 2.5 0
25.5 2.5 0
26.5 2.5 0
27.5 2.5 0
28.5 2.5 0
29.5 2.5 0
30.5 2.5 0
31.5 2.5 0
32.5 2.5 0
33.5 2.5 0
34.5 2.5 0
35.5 2.5 0
36.5 2.5 0
37.5 2.5 0
38.5 2.5 0
39.5 2.5 0
40.5 2.5 0
41.5 2.5 0
42.5 2.5 0
43.5 2.5 0
44.5 2.5 0
45.5 2.5 0
46.5 2.5 0
47.5 2.5 0
48.5 2.5 0
49.5 2.5 0
0 3 0
1 3 0
2 3 0
3 3 0
4 3 0
5 3 0
6 3 0
7 3 0
8 3 0
9 3 0
10 3 0
11 3 0
12 3 0
13 3 0
14 3 0
15 3 0
16 3 0
17 3 0
18 3 0
19 3 0
20 3 0
21 3 0
22 3 0
23 3 0
24 3 0
25 3 0
26 3 0
27 3 0
28 3 0
29 3 0
30 3 0
31 3 0
32 3 0
33 3 0
34 3 0
35 3 0
36 3 0
37 3 0
38 3 0
39 3 0
40 3 0
41 3 0
42 3 0
43 3 0
44 3 0
45 3 0
46 3 0
47 3 0
48 3 0
49 3 0
50 3 0
0.5 3.5 0
1.5 3.5 0
2.5 3.5 0
3.5 3.5 0
4.5 3.5 0
5.5 3.5 0
6.5 3.5 0
7.5 3.5 0
8.5 3.5 0
9.5 3.5 0
10.5 3.5 0
11.5 3.5 0
12.5 3.5 0
13.5 3.5 0
14.5 3.5 0
15.5 3.5 0
16.5 3.5 0
17.5 3.5 0
18.5 3.5 0
19.5 3.5 0
20.5 3.5 0
21.5 3.5 0
22.5 3.5 0
23.5 3.5 0
24.5 3.5 0
25.5 3.5 0
26.5 3.5 0
27.5 3.5 0
28.5 3.5 0
29.5 3.5 0
30.5 3.5 0
31.5 3.5 0
32.5 3.5 0
33.5 3.5 0
34.5 3.5 0
35.5 3.5 0
36.5 3.5 0
37.5 3.5 0
38.5 3.5 0
39.5 3.5 0
40.5 3.5 0
41.5 3.5 0
42.5 3.5 0
43.5 3.5 0
44.5 3.5 0
45.5 3.5 0
46.5 3.5 0
47.5 3.5 0
48.5 3.5 0
49.5 3.5 0
0 4 0
1 4 0
2 4 0
3 4 0
4 4 0
5 4 0
6 4 0
7 4 0
8 4 0
9 4 0
10 4 0
11 4 0
12 4 0
13 4 0
14 4 0
15 4 0
16 4 0
17 4 0
18 4 0
19 4 0
20 4 0
21 4 0
22 4 0
23 4 0
24 4 0
25 4 0
26 4 0
27 4 0
28 4 0
29 4 0
30 4 0
31 4 0
32 4 0
33 4 0
34 4 0
35 4 0
36 4 0
37 4 0
38 4 0
39 4 0
40 4 0
41 4 0
42 4 0
43 4 0
44 4 0
45 4 0
46 4 0
47 4 0
48 4 0
49 4 0
50 4 0
0.5 4.5 0
1.5 4.5 0
2.5 4.5 0
3.5 4.5 0
4.5 4.5 0
5.5 4.5 0
6.5 4.5 0
7.5 4.5 0
8.5 4.5 0
9.5 4.5 0
10.5 4.5 0
11.5 4.5 0
12.5 4.5 0
13.5 4.5 0
14.5 4.5 0
15.5 4.5 0
16.5 4.5 0
17.5 4.5 0
18.5 4.5 0
19.5 4.5 0
20.5 4.5 0
21.5 4.5 0
22.5 4.5 0
23.5 4.5 0
24.5 4.5 0
25.5 4.5 0
26.5 4.5 0
27.5 4.5 0
28.5 4.5 0
29.5 4.5 0
30.5 4.5 0
31.5 4.5 0
32.5 4.5 0
33.5 4.5 0
34.5 4.5 0
35.5 4.5 0
36.5 4.5 0
37.5 4.5 0
38.5 4.5 0
39.5 4.5 0
40.5 4.5 0
41.5 4.5 0
42.5 4.5 0
43.5 4.5 0
44.5 4.5 0
45.5 4.5 0
46.5 4.5 0
47.5 4.5 0
48.5 4.5 0
49.5 4.5 0
0 5 0
1 5 0
2 5 0
3 5 0
4 5 0
5 5 0
6 5 0
7 5 0
8 5 0
9 5 0
10 5 0
11 5 0
12 5 0
13 5 0
14 5 0
15 5 0
16 5 0
17 5 0
18 5 0
19 5 0
20 5 0
21 5 0
22 5 0
23 5 0
24 5 0
25 5 0
26 5 0
27 5 0
28 5 0
29 5 0
30 5 0
31 5 0
32 5 0
33 5 0
34 5 0
35 5 0
36 5 0
37 5 0
38 5 0
39 5 0
40 5 0
41 5 0
42 5 0
43 5 0
44 5 0
45 5 0
46 5 0
47 5 0
48 5 0
49 5 0
50 5 0
0.5 5.5 0
1.5 5.5 0
2.5 5.5 0
3.5 5.5 0
4.5 5.5 0
5.5 5.5 0
6.5 5.5 0
7.5 5.5 0
8.5 5.5 0
9.5 5.5 0
10.5 5.5 0
11.5 5.5 0
12.5 5.5 0
13.5 5.5 0
14.5 5.5 0
15.5 5.5 0
16.5 5.5 0
17.5 5.5 0
18.5 5.5 0
19.5 5.5 0
20.5 5.5 0
21.5 5.5 0
22.5 5.5 0
23.5 5.5 0
24.5 5.5 0
25.5 5.5 0
26.5 5.5 0
27.5 5.5 0
28.5 5.5 0
29.5 5.5 0
30.5 5.5 0
31.5 5.5 0
32.5 5.5 0
33.5 5.5 0
34.5 5.5 0
35.5 5.5 0
36.5 5.5 0
37.5 5.5 0
38.5 5.5 0
39.5 5.5 0
40.5 5.5 0
41.5 5.5 0
42.5 5.5 0
43.5 5.5 0
44.5 5.5 0
45.5 5.5 0
46.5 5.5 0
47.5 5.5 0
48.5 5.5 0
49.5 5.5 0
0 6 0
1 6 0
2 6 0
3 6 0
4 6 0
5 6 0
6 6 0
7 6 0
8 6 0
9 6 0
10 6 0
11 6 0
12 6 0
13 6 0
14 6 0
15 6 0
16 6 0
17 6 0
18 6 0
19 6 0
20 6 0
21 6 0
22 6 0
23 6 0
24 6 0
25 6 0
26 6 0
27 6 0
28 6 0
29 6 0
30 6 0
31 6 0
32 6 0
33 6 0
34 6 0
35 6 0
36 6 0
37 6 0
38 6 0
39 6 0
40 6 0
41 6 0
42 6 0
43 6 0
44 6 0
45 6 0
46 6 0
47 6 0
48 6 0
49 6 0
50 6 0
0.5 6.5 0
1.5 6.5 0
2.5 6.5 0
3.5 6.5 0
4.5 6.5 0
5.5 6.5 0
6.5 6.5 0
7.5 6.5 0
8.5 6.5 0
9.5 6.5 0
10.5 6.5 0
11.5 6.5 0
12.5 6.5 0
13.5 6.5 0
14.5 6.5 0
15.5 6.5 0
16.5 6.5 0
17.5 6.5 0
18.5 6.5 0
19.5 6.5 0
20.5 6.5 0
21.5 6.5 0
22.5 6.5 0
23.5 6.5 0
24.5 6.5 0
25.5 6.5 0
26.5 6.5 0
27.5 6.5 0
28.5 6.5 0
29.5 6.5 0
30.5 6.5 0
31.5 6.5 0
32.5 6.5 0
33.5 6.5 0
34.5 6.5 0
35.5 6.5 0
36.5 6.5 0
37.5 6.5 0
38.5 6.5 0
39.5 6.5 0
40.5 6.5 0
41.5 6.5 0
42.5 6.5 0
43.5 6.5 0
44.5 6.5 0
45.5 6.5 0
46.5 6.5 0
47.5 6.5 0
48.5 6.5 0
49.5 6.5 0
0 7 0
1 7 0
2 7 0
3 7 0
4 7 0
5 7 0
6 7 0
7 7 0
8 7 0
9 7 0
10 7 0
11 7 0
12 7 0
13 7 0
14 7 0
15 7 0
16 7 0
17 7 0
18 7 0
19 7 0
20 7 0
21 7 0
22 7 0
23 7 0
24 7 0
25 7 0
26 7 0
27 7 0
28 7 0
29 7 0
30 7 0
31 7 0
32 7 0
33 7 0
34 7 0
35 7 0
36 7 0
37 7 0
38 7 0
39 7 0
40 7 0
41 7 0
42 7 0
43 7 0
44 7 0
45 7 0
46 7 0
47 7 0
48 7 0
49 7 0
50 7 0
0.5 7.5 0
1.5 7.5 0
2.5 7.5 0
3.5 7.5 0
4.5 7.5 0
5.5 7.5 0
6.5 7.5 0
7.5 7.5 0
8.5 7.5 0
9.5 7.5 0
10.5 7.5 0
11.5 7.5 0
12.5 7.5 0
13.5 7.5 0
14.5 7.5 0
15.5 7.5 0
16.5 7.5 0
17.5 7.5 0
18.5 7.5 0
19.5 7.5 0
20.5 7.5 0
21.5 7.5 0
22.5 7.5 0
23.5 7.5 0
24.5 7.5 0
25.5 7.5 0
26.5 7.5 0
27.5 7.5 0
28.5 7.5 0
29.5 7.5 0
30.5 7.5 0
31.5 7.5 0
32.5 7.5 0
33.5 7.5 0
34.5 7.5 0
35.5 7.5 0
36.5 7.5 0
37.5 7.5 0
38.5 7.5 0
39.5 7.5 0
40.5 7.5 0
41.5 7.5 0
42.5 7.5 0
43.5 7.5 0
44.5 7.5 0
45.5 7.5 0
46.5 7.5 0
47.5 7.5 0
48.5 7.5 0
49.5 7.5 0
0 8 0
1 8 0
2 8 0
3 8 0
4 8 0
5 8 0
6 8 0
7 8 0
8 8 0
9 8 0
10 8 0
11 8 0
12 8 0
13 8 0
14 8 0
15 8 0
16 8 0
17 8 0
18 8 0
19 8 0
20 8 0
21 8 0
22 8 0
23 8 0
24 8 0
25 8 0
26 8 0
27 8 0
28 8 0
29 8 0
30 8 0
31 8 0
32 8 0
33 8 0
34 8 0
35 8 0
36 8 0
37 8 0
38 8 0
39 8 0
40 8 0
41 8 0
42 8 0
43 8 0
44 8 0
45 8 0
46 8 0
47 8 0
48 8 0
49 8 0
50 8 0
0.5 8.5 0
1.5 8.5 0
2.5 8.5 0
3.5 8.5 0
4.5 8.5 0
5.5 8.5 0
6.5 8.5 0
7.5 8.5 0
8.5 8.5 0
9.5 8.5 0
10.5 8.5 0
11.5 8.5 0
12.5 8.5 0
13.5 8.5 0
14.5 8.5 0
15.5 8.5 0
16.5 8.5 0
17.5 8.5 0
18.5 8.5 0
19.5 8.5 0
20.5 8.5 0
21.5 8.5 0
22.5 8.5 0
23.5 8.5 0
24.5 8.5 0
25.5 8.5 0
26.5 8.5 0
27.5 8.5 0
28.5 8.5 0
29.5 8.5 0
30.5 8.5 0
31.5 8.5 0
32.5 8.5 0
33.5 8.5 0
34.5 8.5 0
35.5 8.5 0
36.5 8.5 0
37.5 8.5 0
38.5 8.5 0
39.5 8.5 0
40.5 8.5 0
41.5 8.5 0
42.5 8.5 0
43.5 8.5 0
44.5 8.5 0
45.5 8.5 0
46.5 8.5 0
47.5 8.5 0
48.5 8.5 0
49.5 8.5 0
0 9 0
1 9 0
2 9 0
3 9 0
4 9 0
5 9 0
6 9 0
7 9 0
8 9 0
9 9 0
10 9 0
11 9 0
12 9 0
13 9 0
14 9 0
15 9 0
16 9 0
17 9 0
18 9 0
19 9 0
20 9 0
21 9 0
22 9 0
23 9 0
24 9 0
25 9 0
26 9 0
27 9 0
28 9 0
29 9 0
30 9 0
31 9 0
32 9 0
33 9 0
34 9 0
35 9 0
36 9 0
37 9 0
38 9 0
39 9 0
40 9 0
41 9 0
42 9 0
43 9 0
44 9 0
45 9 0
46 9 0
47 9 0
48 9 0
49 9 0
50 9 0
0.5 9.5 0
1.5 9.5 0
2.5 9.5 0
3.5 9.5 0
4.5 9.5 0
5.5 9.5 0
6.5 9.5 0
7.5 9.5 0
8.5 9.5 0
9.5 9.5 0
10.5 9.5 0
11.5 9.5 0
12.5 9.5 0
13.5 9.5 0
14.5 9.5 0
15.5 9.5 0
16.5 9.5 0
17.5 9.5 0
18.5 9.5 0
19.5 9.5 0
20.5 9.5 0
21.5 9.5 0
22.5 9.5 0
23.5 9.5 0
24.5 9.5 0
25.5 9.5 0
26.5 9.5 0
27.5 9.5 0
28.5 9.5 0
29.5 9.5 0
30.5 9.5 0
31.5 9.5 0
32.5 9.5 0
33.5 9.5 0
34.5 9.5 0
35.5 9.5 0
36.5 9.5 0
37.5 9.5 0
38.5 9.5 0
39.5 9.5 0
40.5 9.5 0
41.5 9.5 0
42.5 9.5 0
43.5 9.5 0
44.5 9.5 0
45.5 9.5 0
46.5 9.5 0
47.5 9.5 0
48.5 9.5 0
49.5 9.5 0
0 10 0
1 10 0
2 10 0
3 10 0
4 10 0
5 10 0
6 10 0
7 10 0
8 10 0
9 10 0
10 10 0
11 10 0
12 10 0
13 10 0
14 10 0
15 10 0
16 10 0
17 10 0
18 10 0
19 10 0
20 10 0
21 10 0
22 10 0
23 10 0
24 10 0
25 10 0
26 10 0
27 10 0
28 10 0
29 10 0
30 10 0
31 10 0
32 10 0
33 10 0
34 10 0
35 10 0
36 10 0
37 10 0
38 10 0
39 10 0
40 10 0
41 10 0
42 10 0
43 10 0
44 10 0
45 10 0
46 10 0
47 10 0
48 10 0
49 10 0
50 10 0
0.5 10.5 0
1.5 10.5 0
2.5 10.5 0
3.5 10.5 0
4.5 10.5 0
5.5 10.5 0
6.5 10.5 0
7.5 10.5 0
8.5 10.5 0
9.5 10.5 0
10.5 10.5 0
11.5 10.5 0
12.5 10.5 0
13.5 10.5 0
14.5 10.5 0
15.5 10.5 0
16.5 10.5 0
17.5 10.5 0
18.5 10.5 0
19.5 10.5 0
20.5 10.5 0
21.5 10.5 0
22.5 10.5 0
23.5 10.5 0
24.5 10.5 0
25.5 10.5 0
26.5 10.5 0
27.5 10.5 0
28.5 10.5 0
29.5 10.5 0
30.5 10.5 0
31.5 10.5 0
32.5 10.5 0
33.5 10.5 0
34.5 10.5 0
35.5 10.5 0
36.5 10.5 0
37.5 10.5 0
38.5 10.5 0
39.5 10.5 0
40.5 10.5 0
41.5 10.5 0
42.5 10.5 0
43.5 10.5 0
44.5 10.5 0
45.5 10.5 0
46.5 10.5 0
47.5 10.5 0
48.5 10.5 0
49.5 10.5 0
0 11 0
1 11 0
2 11 0
3 11 0
[...]
POINT_DATA 5101
VECTORS velocity float
0.582618 0.582618 0.566668
0.596781 0.501428 0.626436
0.551908 0.406274 0.728244
0.545984 0.310352 0.778192
0.576284 0.184691 0.796107
0.621212 0.0243373 0.783265
0.658296 -0.157901 0.736012
0.672298 -0.34076 0.65719
0.658838 -0.505469 0.557166
0.621721 -0.642171 0.448419
0.567649 -0.74939 0.340867
0.50255 -0.830373 0.240676
0.430295 -0.889942 0.151159
0.352837 -0.932747 0.0740881
0.270915 -0.962544 0.0106811
0.184879 -0.982031 -0.0378832
0.0954029 -0.992947 -0.070393
0.00392729 -0.996299 -0.0858688
-0.0872926 -0.992636 -0.0839897
-0.175524 -0.982297 -0.0654533
-0.258127 -0.965578 -0.0320819
-0.333096 -0.942798 0.0133779
-0.399387 -0.914282 0.0676601
-0.456937 -0.880326 0.127417
-0.506476 -0.841161 0.189556
-0.549222 -0.796959 0.251418
-0.586597 -0.747856 0.310832
-0.619982 -0.693982 0.366076
-0.65056 -0.635509 0.415813
-0.679214 -0.57268 0.459027
-0.706482 -0.505847 0.494978
-0.732551 -0.435495 0.523177
-0.757295 -0.362257 0.543391
-0.780337 -0.286921 0.555653
-0.801145 -0.210408 0.560264
-0.819137 -0.133742 0.557789
-0.8338 -0.0579915 0.549013
-0.84478 0.0158012 0.53488
-0.85195 0.0866988 0.516396
-0.855422 0.153943 0.494525
-0.855525 0.217019 0.470084
-0.852743 0.275692 0.443648
-0.847615 0.330039 0.415479
-0.840637 0.380445 0.385475
-0.832138 0.427596 0.353141
-0.822166 0.472447 0.317548
-0.810379 0.516166 0.277234
-0.795937 0.560031 0.22989
-0.77731 0.605305 0.171451
-0.751152 0.653453 0.093649
-0.707004 0.707004 -0.0170186
0.536294 0.536294 0.65175
0.522264 0.429227 0.736889
0.549343 0.323209 0.770557
0.608156 0.196675 0.769067
0.676679 0.0393622 0.735225
0.730789 -0.140777 0.667929
0.75342 -0.324446 0.571921
0.739614 -0.492337 0.458886
0.694445 -0.632947 0.342235
0.62721 -0.743344 0.232481
0.546951 -0.826045 0.135991
0.460618 -0.885845 0.0557639
0.37283 -0.92787 -0.00738165
0.286244 -0.956642 -0.0538566
0.202066 -0.975707 -0.0846448
0.120566 -0.987566 -0.100887
0.041541 -0.993745 -0.103663
-0.0352955 -0.994952 -0.0939409
-0.110038 -0.991268 -0.0726556
-0.182456 -0.982365 -0.04086
-0.252014 -0.967724 0.000129099
-0.318007 -0.946839 0.048654
-0.379768 -0.919358 0.102745
-0.436842 -0.885151 0.160242
-0.489087 -0.844305 0.218961
-0.536675 -0.797078 0.276852
-0.580011 -0.743836 0.332106
-0.619608 -0.685009 0.383208
-0.655963 -0.621065 0.428943
-0.689449 -0.552516 0.468388
-0.720251 -0.479944 0.500892
-0.748339 -0.404027 0.526072
-0.773487 -0.325564 0.543807
-0.795333 -0.245486 0.55424
-0.813464 -0.164841 0.557767
-0.827517 -0.084752 0.555006
-0.837273 -0.00635701 0.546748
-0.842721 0.0692742 0.533875
-0.844092 0.141223 0.517267
-0.841838 0.208796 0.497708
-0.83658 0.271584 0.475789
-0.829022 0.329493 0.451838
-0.819844 0.38275 0.425862
-0.809599 0.431899 0.397508
-0.798598 0.477768 0.366033
-0.786796 0.521441 0.330231
-0.773676 0.564218 0.288241
-0.758054 0.607618 0.23697
-0.73733 0.653592 0.170769
-0.704591 0.704591 0.0842823
0.501428 0.596781 0.626436
0.474461 0.474461 0.741467
0.513203 0.375969 0.771537
0.588294 0.257326 0.766612
0.676669 0.110705 0.727918
0.752743 -0.0608805 0.655493
0.796419 -0.242264 0.554099
0.799192 -0.414941 0.434875
0.763801 -0.565426 0.31129
0.699193 -0.687914 0.194689
0.615645 -0.782565 0.0925903
0.522184 -0.852785 0.00900418
0.425758 -0.903185 -0.0546639
0.331191 -0.938378 -0.098787
0.241416 -0.962357 -0.12485
0.157789 -0.978213 -0.134912
0.0804722 -0.988087 -0.131181
0.0088148 -0.993242 -0.11573
-0.0582681 -0.994205 -0.0903451
-0.121968 -0.990924 -0.0565127
-0.183324 -0.982931 -0.0154957
-0.243052 -0.969501 0.0315291
-0.301482 -0.949823 0.0833339
-0.358576 -0.923162 0.138545
-0.414035 -0.888993 0.19562
-0.467425 -0.847087 0.252898
-0.5183 -0.797538 0.308706
-0.56628 -0.740721 0.361467
-0.611078 -0.677232 0.409806
-0.652466 -0.607811 0.452607
-0.690236 -0.533295 0.48905
-0.724145 -0.454596 0.51861
-0.753893 -0.372701 0.541055
-0.779137 -0.288681 0.556425
-0.79954 -0.203694 0.565018
-0.81484 -0.118967 0.567347
-0.824936 -0.0357481 0.564095
-0.829944 0.0447627 0.556047
-0.830238 0.121498 0.544007
-0.826426 0.193608 0.528712
-0.819306 0.260525 0.510748
-0.809779 0.322011 0.490476
-0.798742 0.37817 0.467972
-0.786984 0.429437 0.44299
-0.775071 0.476554 0.414924
-0.763238 0.52054 0.382761
-0.751256 0.562687 0.34496
-0.738218 0.604618 0.299118
-0.721933 0.648513 0.241337
-0.697041 0.697041 0.16813
-0.653453 0.751152 0.093649
0.429227 0.522264 0.736889
0.449161 0.449161 0.77234
0.52643 0.349663 0.774989
0.627282 0.220081 0.747049
0.72606 0.0612385 0.684899
0.798461 -0.116329 0.590701
0.829906 -0.295097 0.473469
0.818149 -0.459028 0.346303
0.769757 -0.598586 0.221743
0.694885 -0.710797 0.109101
0.603738 -0.797057 0.0141237
0.50502 -0.860992 -0.0603909
0.405449 -0.906996 -0.11388
0.309704 -0.939341 -0.147383
0.220558 -0.961665 -0.162957
0.139143 -0.976741 -0.163143
0.0653074 -0.986446 -0.15053
-0.00198712 -0.991843 -0.127449
-0.064278 -0.993321 -0.095824
-0.123248 -0.990729 -0.057154
-0.180436 -0.983506 -0.0126026
-0.237017 -0.970807 0.0368455
-0.293675 -0.951639 0.0902125
-0.350566 -0.925027 0.146383
-0.407369 -0.890181 0.20403
-0.463414 -0.846639 0.26163
-0.517839 -0.794355 0.317558
-0.569745 -0.733706 0.370225
-0.618301 -0.665425 0.418227
-0.662793 -0.590505 0.460445
-0.702619 -0.510104 0.496106
-0.73727 -0.425474 0.524791
-0.766312 -0.337932 0.546413
-0.789403 -0.248844 0.561177
-0.80633 -0.159615 0.569521
-0.817077 -0.0716517 0.572059
-0.82187 0.0136886 0.569511
-0.821215 0.0951821 0.562625
-0.815879 0.171824 0.552104
-0.806837 0.242907 0.538527
-0.795182 0.308069 0.522282
-0.782018 0.367316 0.503514
-0.768343 0.421008 0.482081
-0.754939 0.469829 0.457524
-0.74227 0.514746 0.429036
-0.730358 0.557002 0.395381
-0.718587 0.598173 0.354714
-0.705229 0.640359 0.304291
-0.686157 0.686157 0.241614
-0.653592 0.73733 0.170769
0.406274 0.551908 0.728244
0.375969 0.513203 0.771537
0.444087 0.444087 0.778186
0.549992 0.338646 0.763432
0.66721 0.199207 0.717737
0.769215 0.0321592 0.63818
0.835015 -0.147705 0.530031
0.855541 -0.3229 0.404704
0.832919 -0.480083 0.275258
0.775645 -0.612413 0.152724
0.694161 -0.718422 0.0448376
0.598424 -0.799983 -0.0437684
0.496888 -0.860682 -0.111035
0.396096 -0.904694 -0.156963
0.300535 -0.936036 -0.183071
0.212719 -0.958102 -0.191812
0.133453 -0.973443 -0.186007
0.0622178 -0.983754 -0.168395
-0.00239923 -0.989959 -0.141334
-0.0622888 -0.992342 -0.106668
-0.11945 -0.990661 -0.0657421
-0.175684 -0.984253 -0.0195174
-0.232354 -0.972129 0.0312397
-0.290231 -0.953107 0.0857503
-0.349425 -0.925981 0.143043
-0.409426 -0.889733 0.201854
-0.469233 -0.843736 0.260634
-0.527559 -0.787891 0.317663
-0.583044 -0.722662 0.37124
-0.634427 -0.649007 0.419873
-0.680642 -0.568233 0.462426
-0.720851 -0.481857 0.498185
-0.754427 -0.391489 0.526855
-0.780946 -0.298773 0.548505
-0.800193 -0.205355 0.563489
-0.8122 -0.112852 0.572359
-0.817283 -0.0228103 0.575785
-0.816066 0.0633711 0.574474
-0.809469 0.144525 0.569097
-0.798646 0.219801 0.560225
-0.784887 0.288721 0.548264
-0.769497 0.351206 0.533413
-0.753678 0.407556 0.515624
-0.73841 0.458414 0.494578
-0.724353 0.504713 0.469657
-0.711738 0.547647 0.439901
-0.700205 0.588698 0.403916
-0.688454 0.629778 0.359737
-0.673327 0.673327 0.305387
-0.648513 0.721933 0.241337
-0.605305 0.77731 0.171451
0.323209 0.549343 0.770557
0.349663 0.52643 0.774989
0.451796 0.451796 0.76926
0.580205 0.338831 0.740645
0.70792 0.190894 0.680006
0.809269 0.0185652 0.587144
0.867734 -0.161403 0.470093
0.879122 -0.332867 0.341093
0.8484 -0.48497 0.212183
0.784858 -0.612675 0.0928849
0.698798 -0.715246 -0.0101936
0.599925 -0.79462 -0.093102
0.496557 -0.854189 -0.154247
0.395138 -0.897895 -0.194036
0.299993 -0.929544 -0.214367
0.21337 -0.952341 -0.217991
0.135732 -0.968684 -0.207912
0.0661921 -0.980143 -0.186915
0.0029878 -0.987548 -0.157287
-0.0560748 -0.991102 -0.120713
-0.113233 -0.990477 -0.0783216
-0.170448 -0.984884 -0.0308437
-0.229143 -0.973163 0.0211658
-0.290034 -0.953907 0.0770803
-0.353041 -0.925672 0.135991
-0.417331 -0.887236 0.196589
-0.481477 -0.837873 0.257194
-0.543723 -0.777539 0.31591
-0.602265 -0.706912 0.37088
-0.655489 -0.627284 0.420535
-0.702099 -0.540358 0.463757
-0.741158 -0.448045 0.499941
-0.772067 -0.352314 0.528948
-0.794546 -0.255114 0.551011
-0.808634 -0.158325 0.566608
-0.814705 -0.0637193 0.576364
-0.81349 0.0270977 0.580947
-0.80605 0.112777 0.581003
-0.793717 0.192312 0.577087
-0.777983 0.265102 0.569617
-0.760367 0.330981 0.558833
-0.74228 0.390196 0.544763
-0.724902 0.44336 0.527208
-0.709077 0.491386 0.505717
-0.695218 0.535431 0.479569
-0.683185 0.576888 0.447725
-0.67203 0.617479 0.408773
-0.659375 0.659375 0.361177
-0.640359 0.705229 0.304291
-0.607618 0.758054 0.23697
0.310352 0.545984 0.778192
0.257326 0.588294 0.766612
0.338646 0.549992 0.763432
0.468798 0.468798 0.748637
0.61467 0.348169 0.707785
0.748254 0.193446 0.634582
0.846518 0.0182492 0.532047
0.897882 -0.160404 0.409973
0.902033 -0.328341 0.28023
0.86551 -0.476811 0.15344
0.797658 -0.601921 0.0378629
0.708426 -0.703177 -0.0606172
0.607306 -0.782317 -0.138421
0.502579 -0.84243 -0.194234
0.400676 -0.887199 -0.228771
0.305807 -0.920233 -0.244241
0.219979 -0.944589 -0.243641
0.143329 -0.962554 -0.2301
0.0746189 -0.975618 -0.2064
0.0117605 -0.98455 -0.174709
-0.0477117 -0.989488 -0.136516
-0.106229 -0.99001 -0.0927161
-0.165849 -0.985178 -0.0438037
-0.227972 -0.973618 0.00985328
-0.293151 -0.953664 0.0677268
-0.360991 -0.92362 0.128887
-0.430211 -0.882099 0.191887
-0.498866 -0.828371 0.254824
-0.56469 -0.762585 0.315578
-0.625473 -0.68578 0.372141
-0.679342 -0.5997 0.422912
-0.724907 -0.506506 0.466864
-0.761278 -0.408518 0.503556
-0.788027 -0.308039 0.533035
-0.805145 -0.20727 0.55568
-0.813036 -0.108261 0.572059
-0.812508 -0.0128576 0.582808
-0.804753 0.0773804 0.588545
-0.791276 0.161267 0.58981
-0.773778 0.238063 0.587022
-0.754003 0.307504 0.580448
-0.73359 0.369785 0.57018
-0.713928 0.425491 0.556115
-0.696053 0.475523 0.537948
-0.680555 0.521017 0.515157
-0.667486 0.563304 0.486982
-0.656179 0.603945 0.452416
-0.644844 0.644844 0.410309
-0.629778 0.688454 0.359737
-0.604618 0.738218 0.299118
-0.560031 0.795937 0.22989
0.196675 0.608156 0.769067
0.220081 0.627282 0.747049
0.338831 0.580205 0.740645
0.492598 0.492598 0.717422
0.651034 0.364911 0.665579
0.786561 0.20534 0.582372
0.880259 0.0293447 0.473585
0.925307 -0.146983 0.349576
0.924114 -0.311661 0.221091
0.883793 -0.457646 0.0973143
0.813259 -0.581723 -0.0144204
0.721988 -0.683328 -0.108612
0.619295 -0.763816 -0.181819
0.513509 -0.82588 -0.232875
0.411118 -0.872899 -0.262733
0.316272 -0.908277 -0.273872
0.230772 -0.93494 -0.269501
0.154458 -0.955097 -0.252849
0.0857618 -0.97019 -0.226664
0.0222865 -0.98095 -0.192977
-0.0386813 -0.98746 -0.15306
-0.0997329 -0.989183 -0.107564
-0.162967 -0.984998 -0.0567592
-0.229683 -0.973265 -0.000858733
-0.300154 -0.952024 0.0596425
-0.37354 -0.919329 0.123704
-0.447985 -0.873697 0.189641
-0.520939 -0.814532 0.255262
-0.589626 -0.742351 0.318208
-0.651502 -0.658708 0.376362
-0.704574 -0.565898 0.428176
-0.747516 -0.46657 0.472791
-0.77964 -0.36343 0.50998
-0.800825 -0.25906 0.53997
-0.811454 -0.155844 0.563254
-0.812388 -0.0559134 0.580431
-0.80493 0.038924 0.592092
-0.790751 0.127273 0.598761
-0.771762 0.208231 0.600852
-0.749947 0.281421 0.59865
-0.727189 0.34697 0.59229
-0.705112 0.405439 0.581753
-0.684958 0.457721 0.566854
-0.667503 0.504946 0.547239
-0.652974 0.548405 0.522376
-0.64094 0.589546 0.49156
-0.630045 0.630045 0.453966
-0.617479 0.67203 0.408773
-0.598173 0.718587 0.354714
-0.564218 0.773676 0.288241
0.184691 0.576284 0.796107
0.110705 0.676669 0.727918
0.199207 0.66721 0.717737
0.348169 0.61467 0.707785
0.520868 0.520868 0.676308
0.686932 0.387198 0.614982
0.821135 0.224831 0.524584
0.909521 0.0498787 0.412654
0.949331 -0.123273 0.289094
0.944589 -0.284817 0.16319
0.902244 -0.429089 0.0428841
0.830466 -0.553255 -0.0650814
0.738175 -0.656486 -0.155316
0.634531 -0.739622 -0.224343
0.527956 -0.804856 -0.271052
0.425059 -0.855196 -0.296589
0.329979 -0.893808 -0.303678
0.244352 -0.923491 -0.295731
0.167747 -0.94639 -0.276056
0.0982854 -0.963926 -0.247358
0.0332787 -0.976809 -0.21151
-0.0302122 -0.985057 -0.16956
-0.0949017 -0.987994 -0.121907
-0.162869 -0.984259 -0.0686131
-0.23521 -0.971895 -0.00978472
-0.311788 -0.948614 0.0540384
-0.391157 -0.912255 0.121602
-0.470762 -0.861361 0.190893
-0.5474 -0.795659 0.259383
-0.617831 -0.71623 0.3245
-0.679319 -0.62529 0.384107
-0.72993 -0.52574 0.436807
-0.768575 -0.4207 0.481979
-0.794922 -0.313201 0.519619
-0.809281 -0.206027 0.550107
-0.812529 -0.101654 0.573988
-0.80606 -0.00218058 0.59183
-0.791694 0.0907521 0.604139
-0.771553 0.176045 0.611322
-0.747869 0.253185 0.613669
-0.72279 0.322217 0.611352
-0.698197 0.383668 0.604416
-0.675568 0.438429 0.592779
-0.655877 0.48763 0.576231
-0.639533 0.532548 0.554428
-0.626303 0.574557 0.526905
-0.615162 0.615162 0.493103
-0.603945 0.656179 0.452416
-0.588698 0.700205 0.403916
-0.562687 0.751256 0.34496
-0.516166 0.810379 0.277234
0.0393622 0.676679 0.735225
0.0612385 0.72606 0.684899
0.190894 0.70792 0.680006
0.364911 0.651034 0.665579
0.55128 0.55128 0.626244
0.720211 0.413047 0.557393
0.850557 0.249979 0.462671
0.933432 0.0777555 0.350227
0.969166 -0.0913787 0.228838
0.962476 -0.249674 0.106317
0.91965 -0.392604 -0.0103443
0.847922 -0.517562 -0.114707
0.755591 -0.623349 -0.20129
0.651639 -0.710186 -0.266462
0.544601 -0.779656 -0.309104
0.441238 -0.834303 -0.330527
0.34572 -0.876999 -0.333693
0.259554 -0.910393 -0.322206
0.182062 -0.93658 -0.299453
0.111074 -0.956973 -0.268079
0.0436314 -0.972263 -0.229785
-0.0234046 -0.982388 -0.185379
-0.0928223 -0.986486 -0.135013
-0.166596 -0.982891 -0.0785617
-0.245487 -0.969266 -0.0160854
-0.328774 -0.942991 0.0517322
-0.414242 -0.901775 0.123311
-0.498525 -0.844375 0.196223
-0.577776 -0.77108 0.267601
-0.648427 -0.683736 0.334733
-0.707754 -0.58532 0.39558
-0.754087 -0.479334 0.44899
-0.786749 -0.369304 0.494612
-0.805899 -0.258496 0.532642
-0.81239 -0.149801 0.563544
-0.807676 -0.0456676 0.587855
-0.793717 0.0519731 0.606063
-0.772833 0.141789 0.618567
-0.747512 0.223098 0.625662
-0.720185 0.295843 0.627543
-0.693016 0.360507 0.62431
-0.667743 0.417973 0.615969
-0.645565 0.469381 0.602434
-0.627085 0.516007 0.583525
-0.612257 0.559187 0.558974
-0.60031 0.60031 0.528446
-0.589546 0.64094 0.49156
-0.576888 0.683185 0.447725
-0.557002 0.730358 0.395381
-0.521441 0.786796 0.330231
0.0243373 0.621212 0.783265
-0.0608805 0.752743 0.655493
0.0321592 0.769215 0.63818
0.193446 0.748254 0.634582
0.387198 0.686932 0.614982
0.581633 0.581633 0.568689
0.749198 0.440532 0.494605
0.873899 0.278815 0.398199
0.951413 0.110875 0.287264
0.984142 -0.0533668 0.169164
0.976817 -0.208049 0.0504381
0.934792 -0.34964 -0.0625793
0.864266 -0.475712 -0.16353
0.77285 -0.584667 -0.246711
0.669297 -0.67603 -0.308262
0.562218 -0.750658 -0.347022
0.458528 -0.810513 -0.364445
0.362447 -0.858099 -0.363729
0.275381 -0.895878 -0.348665
0.19643 -0.925891 -0.322709
0.123156 -0.949547 -0.288432
0.0523517 -0.967512 -0.247346
-0.0192784 -0.979606 -0.200001
-0.0945241 -0.984713 -0.146303
-0.175133 -0.980783 -0.0859798
-0.261355 -0.965053 -0.0191262
-0.351679 -0.934601 0.0533073
-0.442949 -0.887175 0.129294
-0.530938 -0.822006 0.205937
-0.611262 -0.740214 0.280075
-0.680249 -0.644572 0.348984
-0.735432 -0.53884 0.410841
-0.775617 -0.427055 0.464803
-0.800696 -0.313044 0.510773
-0.811438 -0.200201 0.549078
-0.809329 -0.0914011 0.5802
-0.796447 0.0110758 0.604606
-0.775308 0.105619 0.62269
-0.748654 0.191339 0.634749
-0.719211 0.268052 0.641002
-0.68945 0.336177 0.641595
-0.661397 0.396585 0.636611
-0.636508 0.450428 0.626076
-0.615597 0.498994 0.609955
-0.598807 0.543604 0.588153
-0.58558 0.58558 0.560528
-0.574557 0.626303 0.526905
-0.563304 0.667486 0.486982
-0.547647 0.711738 0.439901
-0.52054 0.763238 0.382761
-0.472447 0.822166 0.317548
-0.140777 0.730789 0.667929
-0.116329 0.798461 0.590701
0.0185652 0.809269 0.587144
0.20534 0.786561 0.582372
0.413047 0.720211 0.557393
0.610087 0.610087 0.505556
0.772856 0.467983 0.428586
0.890796 0.309538 0.332668
0.963252 0.147267 0.224627
0.99382 -0.0112083 0.110435
0.986824 -0.161737 -0.00435692
0.946582 -0.301709 -0.113814
0.878241 -0.4289 -0.211514
0.788667 -0.541343 -0.291467
0.686285 -0.637826 -0.349559
0.579701 -0.718373 -0.384561
0.475936 -0.784239 -0.398062
0.379256 -0.837459 -0.393481
0.290979 -0.880264 -0.374789
0.210006 -0.914621 -0.345493
0.133657 -0.941928 -0.30807
0.0585197 -0.962797 -0.263813
-0.0187976 -0.976871 -0.213
-0.100978 -0.982693 -0.155301
-0.189371 -0.97774 -0.0903506
-0.283486 -0.9588 -0.0183968
-0.380795 -0.922763 0.0591948
-0.477062 -0.867674 0.139839
-0.56725 -0.79357 0.220167
-0.646666 -0.702647 0.296834
-0.711831 -0.598685 0.367251
-0.760798 -0.486169 0.429914
-0.793034 -0.369543 0.484289
-0.809129 -0.252812 0.530468
-0.810562 -0.139369 0.568828
-0.799512 -0.0319254 0.599802
-0.778681 0.0675695 0.623771
-0.75107 0.157974 0.641044
-0.71971 0.238941 0.651862
-0.687398 0.310806 0.656418
-0.656475 0.374416 0.654868
-0.628682 0.430936 0.647343
-0.60507 0.481671 0.633943
-0.585983 0.527949 0.614731
-0.571055 0.571055 0.589739
-0.559187 0.612257 0.558974
-0.548405 0.652974 0.522376
-0.535431 0.695218 0.479569
-0.514746 0.74227 0.429036
-0.477768 0.798598 0.366033
-0.157901 0.658296 0.736012
-0.242264 0.796419 0.554099
-0.147705 0.835015 0.530031
0.0182492 0.846518 0.532047
0.224831 0.821135 0.524584
0.440532 0.749198 0.494605
0.635339 0.635339 0.438963
0.790797 0.494129 0.361217
0.901378 0.340634 0.267369
0.969086 0.185188 0.163027
0.998041 0.0332676 0.0529904
0.991963 -0.112509 -0.0578868
0.954169 -0.250413 -0.163876
0.888799 -0.378493 -0.258418
0.801934 -0.494486 -0.335238
0.701548 -0.596449 -0.389974
0.596098 -0.683486 -0.421324
0.492616 -0.756026 -0.430992
0.395371 -0.815535 -0.422593
0.305597 -0.863948 -0.400255
0.222021 -0.90313 -0.367509
0.141761 -0.934436 -0.3267
0.0612546 -0.958373 -0.278872
-0.0228882 -0.974317 -0.224013
-0.113087 -0.980359 -0.161578
-0.210063 -0.973424 -0.0912061
-0.312304 -0.949887 -0.0134561
-0.416034 -0.906672 0.0697259
-0.515902 -0.842486 0.15512
-0.606258 -0.758519 0.238957
-0.682438 -0.658208 0.317869
-0.741482 -0.546314 0.389545
-0.782202 -0.427902 0.452836
-0.804872 -0.307678 0.50746
-0.810892 -0.189678 0.553603
-0.802519 -0.0771419 0.591618
-0.782641 0.0275549 0.621863
-0.754523 0.122957 0.644653
-0.721512 0.208509 0.66026
-0.686751 0.284435 0.668932
-0.65292 0.351545 0.670904
-0.622069 0.411009 0.66641
-0.595517 0.464158 0.655681
-0.573826 0.512335 0.638934
-0.556817 0.556817 0.616367
-0.543604 0.598807 0.588153
-0.532548 0.639533 0.554428
-0.521017 0.680555 0.515157
-0.504713 0.724353 0.469657
-0.476554 0.775071 0.414924
-0.427596 0.832138 0.353141
-0.324446 0.75342 0.571921
-0.295097 0.829906 0.473469
-0.161403 0.867734 0.470093
0.0293447 0.880259 0.473585
0.249979 0.850557 0.462671
0.467983 0.772856 0.428586
0.656663 0.656663 0.370928
0.803163 0.51812 0.294075
0.906139 0.370924 0.203291
0.969323 0.223167 0.103006
0.996917 0.078408 -0.00286722
0.992 -0.0620866 -0.109911
0.957013 -0.197433 -0.212478
0.895191 -0.326031 -0.303869
0.811812 -0.445424 -0.37757
0.714252 -0.552983 -0.429016
0.610637 -0.646857 -0.456834
0.507861 -0.726557 -0.462809
0.410123 -0.79288 -0.45071
0.318559 -0.8474 -0.424775
0.231751 -0.891824 -0.388512
0.14667 -0.927411 -0.344087
0.0596884 -0.954477 -0.29225
-0.0324457 -0.97201 -0.232688
-0.131668 -0.977516 -0.164701
-0.237758 -0.967323 -0.0880795
-0.347876 -0.937533 -0.00389519
-0.456838 -0.885464 0.0851687
-0.558297 -0.81092 0.175253
-0.646347 -0.716531 0.262333
-0.716754 -0.607021 0.343205
-0.767387 -0.487983 0.415921
-0.797997 -0.364885 0.479646
-0.809791 -0.242524 0.534248
-0.805058 -0.124806 0.579919
-0.786865 -0.0146376 0.616952
-0.758757 0.0861225 0.645655
-0.724425 0.176648 0.666337
-0.687375 0.257014 0.679308
-0.650652 0.327972 0.684899
-0.616639 0.390691 0.68346
-0.586946 0.446527 0.675358
-0.562375 0.496848 0.660966
-0.542943 0.542943 0.640645
-0.527949 0.585983 0.614731