# vtk DataFile Version 2.0
tmp/0.000.00-10.000.000.001.005.vtk
ASCII
DATASET UNSTRUCTURED_GRID
POINTS 5000 float
0.25 0.25 0
1.25 0.25 0
2.25 0.25 0
3.25 0.25 0
4.25 0.25 0
5.25 0.25 0
6.25 0.25 0
7.25 0.25 0
8.25 0.25 0
9.25 0.25 0
10.25 0.25 0
11.25 0.25 0
12.25 0.25 0
13.25 0.25 0
14.25 0.25 0
15.25 0.25 0
16.25 0.25 0
17.25 0.25 0
18.25 0.25 0
19.25 0.25 0
20.25 0.25 0
21.25 0.25 0
22.25 0.25 0
23.25 0.25 0
24.25 0.25 0
25.25 0.25 0
26.25 0.25 0
27.25 0.25 0
28.25 0.25 0
29.25 0.25 0
30.25 0.25 0
31.25 0.25 0
32.25 0.25 0
33.25 0.25 0
34.25 0.25 0
35.25 0.25 0
36.25 0.25 0
37.25 0.25 0
38.25 0.25 0
39.25 0.25 0
40.25 0.25 0
41.25 0.25 0
42.25 0.25 0
43.25 0.25 0
44.25 0.25 0
45.25 0.25 0
46.25 0.25 0
47.25 0.25 0
48.25 0.25 0
49.25 0.25 0
0.75 0.75 0
1.75 0.75 0
2.75 0.75 0
3.75 0.75 0
4.75 0.75 0
5.75 0.75 0
6.75 0.75 0
7.75 0.75 0
8.75 0.75 0
9.75 0.75 0
10.75 0.75 0
11.75 0.75 0
12.75 0.75 0
13.75 0.75 0
14.75 0.75 0
15.75 0.75 0
16.75 0.75 0
17.75 0.75 0
18.75 0.75 0
19.75 0.75 0
20.75 0.75 0
21.75 0.75 0
22.75 0.75 0
23.75 0.75 0
24.75 0.75 0
25.75 0.75 0
26.75 0.75 0
27.75 0.75 0
28.75 0.75 0
29.75 0.75 0
30.75 0.75 0
31.75 0.75 0
32.75 0.75 0
33.75 0.75 0
34.75 0.75 0
35.75 0.75 0
36.75 0.75 0
37.75 0.75 0
38.75 0.75 0
39.75 0.75 0
40.75 0.75 0
41.75 0.75 0
42.75 0.75 0
43.75 0.75 0
44.75 0.75 0
45.75 0.75 0
46.75 0.75 0
47.75 0.75 0
48.75 0.75 0
49.75 0.75 0
0.25 1.25 0
1.25 1.25 0
2.25 1.25 0
3.25 1.25 0
4.25 1.25 0
5.25 1.25 0
6.25 1.25 0
7.25 1.25 0
8.25 1.25 0
9.25 1.25 0
10.25 1.25 0
11.25 1.25 0
12.25 1.25 0
13.25 1.25 0
14.25 1.25 0
15.25 1.25 0
16.25 1.25 0
17.25 1.25 0
18.25 1.25 0
19.25 1.25 0
20.25 1.25 0
21.25 1.25 0
22.25 1.25 0
23.25 1.25 0
24.25 1.25 0
25.25 1.25 0
26.25 1.25 0
27.25 1.25 0
28.25 1.25 0
29.25 1.25 0
30.25 1.25 0
31.25 1.25 0
32.25 1.25 0
33.25 1.25 0
34.25 1.25 0
35.25 1.25 0
36.25 1.25 0
37.25 1.25 0
38.25 1.25 0
39.25 1.25 0
40.25 1.25 0
41.25 1.25 0
42.25 1.25 0
43.25 1.25 0
44.25 1.25 0
45.25 1.25 0
46.25 1.25 0
47.25 1.25 0
48.25 1.25 0
49.25 1.25 0
0.75 1.75 0
1.75 1.75 0
2.75 1.75 0
3.75 1.75 0
4.75 1.75 0
5.75 1.75 0
6.75 1.75 0
7.75 1.75 0
8.75 1.75 0
9.75 1.75 0
10.75 1.75 0
11.75 1.75 0
12.75 1.75 0
13.75 1.75 0
14.75 1.75 0
15.75 1.75 0
16.75 1.75 0
17.75 1.75 0
18.75 1.75 0
19.75 1.75 0
20.75 1.75 0
21.75 1.75 0
22.75 1.75 0
23.75 1.75 0
24.75 1.75 0
25.75 1.75 0
26.75 1.75 0
27.75 1.75 0
28.75 1.75 0
29.75 1.75 0
30.75 1.75 0
31.75 1.75 0
32.75 1.75 0
33.75 1.75 0
34.75 1.75 0
35.75 1.75 0
36.75 1.75 0
37.75 1.75 0
38.75 1.75 0
39.75 1.75 0
40.75 1.75 0
41.75 1.75 0
42.75 1.75 0
43.75 1.75 0
44.75 1.75 0
45.75 1.75 0
46.75 1.75 0
47.75 1.75 0
48.75 1.75 0
49.75 1.75 0
0.25 2.25 0
1.25 2.25 0
2.25 2.25 0
3.25 2.25 0
4.25 2.25 0
5.25 2.25 0
6.25 2.25 0
7.25 2.25 0
8.25 2.25 0
9.25 2.25 0
10.25 2.25 0
11.25 2.25 0
12.25 2.25 0
13.25 2.25 0
14.25 2.25 0
15.25 2.25 0
16.25 2.25 0
17.25 2.25 0
18.25 2.25 0
19.25 2.25 0
20.25 2.25 0
21.25 2.25 0
22.25 2.25 0
23.25 2.25 0
24.25 2.25 0
25.25 2.25 0
26.25 2.25 0
27.25 2.25 0
28.25 2.25 0
29.25 2.25 0
30.25 2.25 0
31.25 2.25 0
32.25 2.25 0
33.25 2.25 0
34.25 2.25 0
35.25 2.25 0
36.25 2.25 0
37.25 2.25 0
38.25 2.25 0
39.25 2.25 0
40.25 2.25 0
41.25 2.25 0
42.25 2.25 0
43.25 2.25 0
44.25 2.25 0
45.25 2.25 0
46.25 2.25 0
47.25 2.25 0
48.25 2.25 0
49.25 2.25 0
0.75 2.75 0
1.75 2.75 0
2.75 2.75 0
3.75 2.75 0
4.75 2.75 0
5.75 2.75 0
6.75 2.75 0
7.75 2.75 0
8.75 2.75 0
9.75 2.75 0
10.75 2.75 0
11.75 2.75 0
12.75 2.75 0
13.75 2.75 0
14.75 2.75 0
15.75 2.75 0
16.75 2.75 0
17.75 2.75 0
18.75 2.75 0
19.75 2.75 0
20.75 2.75 0
21.75 2.75 0
22.75 2.75 0
23.75 2.75 0
24.75 2.75 0
25.75 2.75 0
26.75 2.75 0
27.75 2.75 0
28.75 2.75 0
29.75 2.75 0
30.75 2.75 0
31.75 2.75 0
32.75 2.75 0
33.75 2.75 0
34.75 2.75 0
35.75 2.75 0
36.75 2.75 0
37.75 2.75 0
38.75 2.75 0
39.75 2.75 0
40.75 2.75 0
41.75 2.75 0
42.75 2.75 0
43.75 2.75 0
44.75 2.75 0
45.75 2.75 0
46.75 2.75 0
47.75 2.75 0
48.75 2.75 0
49.75 2.75 0
0.25 3.25 0
1.25 3.25 0
2.25 3.25 0
3.25 3.25 0
4.25 3.25 0
5.25 3.25 0
6.25 3.25 0
7.25 3.25 0
8.25 3.25 0
9.25 3.25 0
10.25 3.25 0
11.25 3.25 0
12.25 3.25 0
13.25 3.25 0
14.25 3.25 0
15.25 3.25 0
16.25 3.25 0
17.25 3.25 0
18.25 3.25 0
19.25 3.25 0
20.25 3.25 0
21.25 3.25 0
22.25 3.25 0
23.25 3.25 0
24.25 3.25 0
25.25 3.25 0
26.25 3.25 0
27.25 3.25 0
28.25 3.25 0
29.25 3.25 0
30.25 3.25 0
31.25 3.25 0
32.25 3.25 0
33.25 3.25 0
34.25 3.25 0
35.25 3.25 0
36.25 3.25 0
37.25 3.25 0
38.25 3.25 0
39.25 3.25 0
40.25 3.25 0
41.25 3.25 0
42.25 3.25 0
43.25 3.25 0
44.25 3.25 0
45.25 3.25 0
46.25 3.25 0
47.25 3.25 0
48.25 3.25 0
49.25 3.25 0
0.75 3.75 0
1.75 3.75 0
2.75 3.75 0
3.75 3.75 0
4.75 3.75 0
5.75 3.75 0
6.75 3.75 0
7.75 3.75 0
8.75 3.75 0
9.75 3.75 0
10.75 3.75 0
11.75 3.75 0
12.75 3.75 0
13.75 3.75 0
14.75 3.75 0
15.75 3.75 0
16.75 3.75 0
17.75 3.75 0
18.75 3.75 0
19.75 3.75 0
20.75 3.75 0
21.75 3.75 0
22.75 3.75 0
23.75 3.75 0
24.75 3.75 0
25.75 3.75 0
26.75 3.75 0
27.75 3.75 0
28.75 3.75 0
29.75 3.75 0
30.75 3.75 0
31.75 3.75 0
32.75 3.75 0
33.75 3.75 0
34.75 3.75 0
35.75 3.75 0
36.75 3.75 0
37.75 3.75 0
38.75 3.75 0
39.75 3.75 0
40.75 3.75 0
41.75 3.75 0
42.75 3.75 0
43.75 3.75 0
44.75 3.75 0
45.75 3.75 0
46.75 3.75 0
47.75 3.75 0
48.75 3.75 0
49.75 3.75 0
0.25 4.25 0
1.25 4.25 0
2.25 4.25 0
3.25 4.25 0
4.25 4.25 0
5.25 4.25 0
6.25 4.25 0
7.25 4.25 0
8.25 4.25 0
9.25 4.25 0
10.25 4.25 0
11.25 4.25 0
12.25 4.25 0
13.25 4.25 0
14.25 4.25 0
15.25 4.25 0
16.25 4.25 0
17.25 4.25 0
18.25 4.25 0
19.25 4.25 0
20.25 4.25 0
21.25 4.25 0
22.25 4.25 0
23.25 4.25 0
24.25 4.25 0
25.25 4.25 0
26.25 4.25 0
27.25 4.25 0
28.25 4.25 0
29.25 4.25 0
30.25 4.25 0
31.25 4.25 0
32.25 4.25 0
33.25 4.25 0
34.25 4.25 0
35.25 4.25 0
36.25 4.25 0
37.25 4.25 0
38.25 4.25 0
39.25 4.25 0
40.25 4.25 0
41.25 4.25 0
42.25 4.25 0
43.25 4.25 0
44.25 4.25 0
45.25 4.25 0
46.25 4.25 0
47.25 4.25 0
48.25 4.25 0
49.25 4.25 0
0.75 4.75 0
1.75 4.75 0
2.75 4.75 0
3.75 4.75 0
4.75 4.75 0
5.75 4.75 0
6.75 4.75 0
7.75 4.75 0
8.75 4.75 0
9.75 4.75 0
10.75 4.75 0
11.75 4.75 0
12.75 4.75 0
13.75 4.75 0
14.75 4.75 0
15.75 4.75 0
16.75 4.75 0
17.75 4.75 0
18.75 4.75 0
19.75 4.75 0
20.75 4.75 0
21.75 4.75 0
22.75 4.75 0
23.75 4.75 0
24.75 4.75 0
25.75 4.75 0
26.75 4.75 0
27.75 4.75 0
28.75 4.75 0
29.75 4.75 0
30.75 4.75 0
31.75 4.75 0
32.75 4.75 0
33.75 4.75 0
34.75 4.75 0
35.75 4.75 0
36.75 4.75 0
37.75 4.75 0
38.75 4.75 0
39.75 4.75 0
40.75 4.75 0
41.75 4.75 0
42.75 4.75 0
43.75 4.75 0
44.75 4.75 0
45.75 4.75 0
46.75 4.75 0
47.75 4.75 0
48.75 4.75 0
49.75 4.75 0
0.25 5.25 0
1.25 5.25 0
2.25 5.25 0
3.25 5.25 0
4.25 5.25 0
5.25 5.25 0
6.25 5.25 0
7.25 5.25 0
8.25 5.25 0
9.25 5.25 0
10.25 5.25 0
11.25 5.25 0
12.25 5.25 0
13.25 5.25 0
14.25 5.25 0
15.25 5.25 0
16.25 5.25 0
17.25 5.25 0
18.25 5.25 0
19.25 5.25 0
20.25 5.25 0
21.25 5.25 0
22.25 5.25 0
23.25 5.25 0
24.25 5.25 0
25.25 5.25 0
26.25 5.25 0
27.25 5.25 0
28.25 5.25 0
29.25 5.25 0
30.25 5.25 0
31.25 5.25 0
32.25 5.25 0
33.25 5.25 0
34.25 5.25 0
35.25 5.25 0
36.25 5.25 0
37.25 5.25 0
38.25 5.25 0
39.25 5.25 0
40.25 5.25 0
41.25 5.25 0
42.25 5.25 0
43.25 5.25 0
44.25 5.25 0
45.25 5.25 0
46.25 5.25 0
47.25 5.25 0
48.25 5.25 0
49.25 5.25 0
0.75 5.75 0
1.75 5.75 0
2.75 5.75 0
3.75 5.75 0
4.75 5.75 0
5.75 5.75 0
6.75 5.75 0
7.75 5.75 0
8.75 5.75 0
9.75 5.75 0
10.75 5.75 0
11.75 5.75 0
12.75 5.75 0
13.75 5.75 0
14.75 5.75 0
15.75 5.75 0
16.75 5.75 0
17.75 5.75 0
18.75 5.75 0
19.75 5.75 0
20.75 5.75 0
21.75 5.75 0
22.75 5.75 0
23.75 5.75 0
24.75 5.75 0
25.75 5.75 0
26.75 5.75 0
27.75 5.75 0
28.75 5.75 0
29.75 5.75 0
30.75 5.75 0
31.75 5.75 0
32.75 5.75 0
33.75 5.75 0
34.75 5.75 0
35.75 5.75 0
36.75 5.75 0
37.75 5.75 0
38.75 5.75 0
39.75 5.75 0
40.75 5.75 0
41.75 5.75 0
42.75 5.75 0
43.75 5.75 0
44.75 5.75 0
45.75 5.75 0
46.75 5.75 0
47.75 5.75 0
48.75 5.75 0
49.75 5.75 0
0.25 6.25 0
1.25 6.25 0
2.25 6.25 0
3.25 6.25 0
4.25 6.25 0
5.25 6.25 0
6.25 6.25 0
7.25 6.25 0
8.25 6.25 0
9.25 6.25 0
10.25 6.25 0
11.25 6.25 0
12.25 6.25 0
13.25 6.25 0
14.25 6.25 0
15.25 6.25 0
16.25 6.25 0
17.25 6.25 0
18.25 6.25 0
19.25 6.25 0
20.25 6.25 0
21.25 6.25 0
22.25 6.25 0
23.25 6.25 0
24.25 6.25 0
25.25 6.25 0
26.25 6.25 0
27.25 6.25 0
28.25 6.25 0
29.25 6.25 0
30.25 6.25 0
31.25 6.25 0
32.25 6.25 0
33.25 6.25 0
34.25 6.25 0
35.25 6.25 0
36.25 6.25 0
37.25 6.25 0
38.25 6.25 0
39.25 6.25 0
40.25 6.25 0
41.25 6.25 0
42.25 6.25 0
43.25 6.25 0
44.25 6.25 0
45.25 6.25 0
46.25 6.25 0
47.25 6.25 0
48.25 6.25 0
49.25 6.25 0
0.75 6.75 0
1.75 6.75 0
2.75 6.75 0
3.75 6.75 0
4.75 6.75 0
5.75 6.75 0
6.75 6.75 0
7.75 6.75 0
8.75 6.75 0
9.75 6.75 0
10.75 6.75 0
11.75 6.75 0
12.75 6.75 0
13.75 6.75 0
14.75 6.75 0
15.75 6.75 0
16.75 6.75 0
17.75 6.75 0
18.75 6.75 0
19.75 6.75 0
20.75 6.75 0
21.75 6.75 0
22.75 6.75 0
23.75 6.75 0
24.75 6.75 0
25.75 6.75 0
26.75 6.75 0
27.75 6.75 0
28.75 6.75 0
29.75 6.75 0
30.75 6.75 0
31.75 6.75 0
32.75 6.75 0
33.75 6.75 0
34.75 6.75 0
35.75 6.75 0
36.75 6.75 0
37.75 6.75 0
38.75 6.75 0
39.75 6.75 0
40.75 6.75 0
41.75 6.75 0
42.75 6.75 0
43.75 6.75 0
44.75 6.75 0
45.75 6.75 0
46.75 6.75 0
47.75 6.75 0
48.75 6.75 0
49.75 6.75 0
0.25 7.25 0
1.25 7.25 0
2.25 7.25 0
3.25 7.25 0
4.25 7.25 0
5.25 7.25 0
6.25 7.25 0
7.25 7.25 0
8.25 7.25 0
9.25 7.25 0
10.25 7.25 0
11.25 7.25 0
12.25 7.25 0
13.25 7.25 0
14.25 7.25 0
15.25 7.25 0
16.25 7.25 0
17.25 7.25 0
18.25 7.25 0
19.25 7.25 0
20.25 7.25 0
21.25 7.25 0
22.25 7.25 0
23.25 7.25 0
24.25 7.25 0
25.25 7.25 0
26.25 7.25 0
27.25 7.25 0
28.25 7.25 0
29.25 7.25 0
30.25 7.25 0
31.25 7.25 0
32.25 7.25 0
33.25 7.25 0
34.25 7.25 0
35.25 7.25 0
36.25 7.25 0
37.25 7.25 0
38.25 7.25 0
39.25 7.25 0
40.25 7.25 0
41.25 7.25 0
42.25 7.25 0
43.25 7.25 0
44.25 7.25 0
45.25 7.25 0
46.25 7.25 0
47.25 7.25 0
48.25 7.25 0
49.25 7.25 0
0.75 7.75 0
1.75 7.75 0
2.75 7.75 0
3.75 7.75 0
4.75 7.75 0
5.75 7.75 0
6.75 7.75 0
7.75 7.75 0
8.75 7.75 0
9.75 7.75 0
10.75 7.75 0
11.75 7.75 0
12.75 7.75 0
13.75 7.75 0
14.75 7.75 0
15.75 7.75 0
16.75 7.75 0
17.75 7.75 0
18.75 7.75 0
19.75 7.75 0
20.75 7.75 0
21.75 7.75 0
[...]
POINT_DATA 5000
VECTORS velocity float
0.103944 0.103944 0.989137
0.295687 0.019872 0.955078
0.484679 -0.126119 0.865552
0.620047 -0.304218 0.723183
0.681772 -0.486812 0.546078
0.66867 -0.651793 0.357836
0.591998 -0.785651 0.179695
0.468498 -0.883064 0.0265889
0.315252 -0.944416 -0.0932434
0.147053 -0.973183 -0.176892
-0.0243695 -0.974039 -0.225063
-0.190174 -0.951787 -0.240699
-0.343947 -0.910882 -0.228025
-0.481255 -0.855306 -0.19195
-0.599321 -0.788583 -0.137667
-0.69679 -0.713815 -0.0703713
-0.773546 -0.633721 0.00496439
-0.830526 -0.550643 0.0837804
-0.869517 -0.466548 0.162087
-0.892926 -0.383033 0.236577
-0.903529 -0.301334 0.304685
-0.904233 -0.222362 0.36458
-0.897857 -0.146744 0.415113
-0.886969 -0.0748769 0.455719
-0.873764 -0.00699584 0.4863
-0.86001 0.056771 0.507109
-0.847038 0.116348 0.518643
-0.835761 0.171674 0.521567
-0.82673 0.222686 0.516651
-0.820192 0.269319 0.50473
-0.816145 0.311517 0.486687
-0.8144 0.349259 0.463433
-0.81463 0.382578 0.435904
-0.81642 0.411581 0.405042
-0.819318 0.436458 0.371784
-0.82287 0.457484 0.337035
-0.826662 0.475021 0.301636
-0.830326 0.489515 0.266334
-0.833542 0.501503 0.231739
-0.836006 0.511633 0.198306
-0.83739 0.520688 0.166316
-0.837295 0.529594 0.135894
-0.835217 0.539399 0.107059
-0.830559 0.551182 0.0798142
-0.822683 0.565902 0.0542928
-0.810994 0.584236 0.0309185
-0.795005 0.60651 0.0105533
-0.774276 0.632824 -0.00548691
-0.748333 0.663138 -0.0156984
-0.719082 0.694677 -0.0185807
0.169295 0.169295 0.970916
0.390027 0.0586126 0.918936
0.575834 -0.106702 0.810574
0.692647 -0.297686 0.656981
0.7298 -0.486639 0.480182
0.6936 -0.653394 0.303307
0.599589 -0.787205 0.144225
0.465637 -0.884869 0.0137786
0.307987 -0.947744 -0.0832212
0.139821 -0.979328 -0.146175
-0.0287679 -0.983774 -0.177093
-0.190298 -0.965183 -0.17947
-0.339364 -0.927361 -0.157585
-0.472224 -0.873805 -0.116053
-0.586515 -0.807746 -0.0595542
-0.681065 -0.732186 0.00735374
-0.755758 -0.649899 0.0803752
-0.811403 -0.563397 0.155589
-0.849585 -0.474885 0.229544
-0.872483 -0.38623 0.299331
-0.882682 -0.298955 0.362628
-0.882956 -0.214247 0.417716
-0.876082 -0.132991 0.463459
-0.864654 -0.0558202 0.499258
-0.850952 0.0168372 0.524974
-0.836846 0.0846977 0.540847
-0.823756 0.147576 0.547401
-0.812653 0.205351 0.545367
-0.804104 0.257942 0.535615
-0.798323 0.305315 0.519098
-0.79525 0.347484 0.496822
-0.794612 0.384532 0.469816
-0.795996 0.416621 0.439111
-0.798911 0.443999 0.405716
-0.80285 0.466999 0.370598
-0.807332 0.486029 0.33465
-0.811934 0.501566 0.298656
-0.816297 0.514155 0.263258
-0.820107 0.52442 0.228926
-0.823053 0.533095 0.195941
-0.824768 0.541046 0.164396
-0.824781 0.549289 0.134229
-0.822489 0.558949 0.105294
-0.817178 0.571151 0.0774971
-0.808092 0.586847 0.0509654
-0.794518 0.606672 0.0262608
-0.775824 0.630933 0.00460803
-0.751398 0.659742 -0.0118863
-0.721676 0.691944 -0.0199448
-0.694677 0.719082 -0.0185807
0.019872 0.295687 0.955078
0.241432 0.241432 0.939905
0.472833 0.109334 0.874343
0.651504 -0.0738486 0.755042
0.75133 -0.277791 0.598612
0.768624 -0.474752 0.428751
0.71504 -0.646109 0.266946
0.608752 -0.783 0.127797
0.46799 -0.883533 0.0188156
0.308067 -0.949608 -0.0577928
0.140781 -0.984655 -0.103125
-0.0251184 -0.992445 -0.120094
-0.183229 -0.976612 -0.112499
-0.328901 -0.940578 -0.0844861
-0.458837 -0.887609 -0.0402415
-0.570873 -0.820879 0.0161731
-0.663857 -0.74347 0.0809112
-0.737575 -0.658305 0.150392
-0.792664 -0.568063 0.221332
-0.830502 -0.475103 0.290763
-0.853066 -0.381439 0.356067
-0.862775 -0.288751 0.41502
-0.862328 -0.198424 0.465853
-0.854514 -0.111579 0.507303
-0.842031 -0.0291012 0.538643
-0.827311 0.0483337 0.559661
-0.812378 0.120236 0.570601
-0.798772 0.186273 0.572071
-0.787531 0.246242 0.564942
-0.779221 0.300053 0.550257
-0.774009 0.347717 0.529154
-0.771749 0.389347 0.502804
-0.772075 0.425162 0.472375
-0.774484 0.455479 0.438991
-0.778423 0.480709 0.403704
-0.783342 0.501343 0.367465
-0.788748 0.517931 0.331095
-0.794219 0.531076 0.295252
-0.799393 0.54144 0.26041
-0.803931 0.549761 0.226842
-0.807463 0.556889 0.19462
-0.809527 0.563816 0.163636
-0.809524 0.571669 0.133662
-0.80671 0.58164 0.104466
-0.800251 0.594833 0.0759752
-0.789305 0.612082 0.0485078
-0.773109 0.633853 0.023061
-0.750989 0.660312 0.001646
-0.722666 0.691077 -0.0128746
-0.691944 0.721676 -0.0199448
0.0586126 0.390027 0.918936
0.311918 0.311918 0.897449
0.546435 0.160865 0.821907
0.715732 -0.0383958 0.697319
0.799791 -0.254159 0.543817
0.800618 -0.45892 0.38523
0.733687 -0.635427 0.240701
0.618621 -0.776208 0.12169
0.473412 -0.880226 0.0329157
0.312316 -0.949638 -0.02541
0.145904 -0.987737 -0.0555727
-0.018126 -0.997971 -0.0610302
-0.174105 -0.983668 -0.0456526
-0.317795 -0.948066 -0.0133194
-0.446058 -0.894422 0.0322782
-0.556732 -0.826048 0.0877183
-0.648602 -0.746228 0.149861
-0.721374 -0.658062 0.215812
-0.77559 -0.564312 0.282864
-0.812514 -0.467345 0.348439
-0.834 -0.369161 0.410078
-0.842375 -0.271491 0.465508
-0.840313 -0.175877 0.512778
-0.830686 -0.0837008 0.550413
-0.816356 0.00383073 0.577536
-0.79996 0.0857296 0.593898
-0.783713 0.161254 0.599826
-0.769284 0.229913 0.596106
-0.757756 0.291441 0.58384
-0.749664 0.345773 0.564309
-0.745088 0.393016 0.538872
-0.743767 0.433423 0.508877
-0.74522 0.467381 0.475608
-0.748851 0.495388 0.440241
-0.754044 0.518027 0.403815
-0.760216 0.535946 0.367196
-0.766861 0.549834 0.331068
-0.773544 0.560419 0.295905
-0.779871 0.568483 0.26197
-0.78544 0.574891 0.229313
-0.789778 0.580628 0.197792
-0.792283 0.586822 0.167119
-0.792198 0.594697 0.136957
-0.78864 0.605461 0.107068
-0.780675 0.620109 0.0775343
-0.767423 0.639263 0.049043
-0.748129 0.663147 0.0232209
-0.722297 0.691578 0.00243395
-0.691077 0.722666 -0.0128746
-0.663138 0.748333 -0.0156984
-0.126119 0.484679 0.865552
0.109334 0.472833 0.874343
0.377207 0.377207 0.845831
0.610368 0.209586 0.763888
0.76934 -0.00355995 0.63883
0.839365 -0.229503 0.492741
0.82697 -0.441278 0.348417
0.750112 -0.622828 0.222301
0.628936 -0.767669 0.122976
0.480785 -0.875242 0.0528881
0.318852 -0.947743 0.0107852
0.152716 -0.988249 -0.00639452
-0.0106163 -0.999941 -0.00237825
-0.165822 -0.985972 0.0190522
-0.308732 -0.949595 0.05436
-0.436125 -0.89427 0.100378
-0.545747 -0.823616 0.15433
-0.636351 -0.741188 0.213771
-0.707675 -0.650206 0.276457
-0.760299 -0.553374 0.340181
-0.795474 -0.452887 0.402634
-0.814997 -0.3506 0.461367
-0.821141 -0.248237 0.513912
-0.816602 -0.147528 0.558029
-0.804381 -0.0502057 0.591989
-0.78756 0.0421056 0.614797
-0.769029 0.128035 0.62626
-0.75121 0.20657 0.626907
-0.735886 0.277082 0.617817
-0.724149 0.3393 0.600403
-0.716453 0.393249 0.576238
-0.71275 0.439187 0.546902
-0.712637 0.477561 0.513891
-0.715507 0.508958 0.478551
-0.720675 0.534068 0.442039
-0.727466 0.553652 0.405294
-0.735268 0.568507 0.369027
-0.743549 0.579456 0.333715
-0.751832 0.587354 0.299605
-0.759656 0.593112 0.266724
-0.766508 0.597736 0.234897
-0.77177 0.602362 0.20379
-0.774672 0.608242 0.172988
-0.774297 0.616657 0.142122
-0.769645 0.628737 0.111066
-0.759738 0.645265 0.0801982
-0.743721 0.666564 0.050708
-0.720982 0.69252 0.0245181
-0.691578 0.722297 0.00243395
-0.659742 0.751398 -0.0118863
-0.106702 0.575834 0.810574
0.160865 0.546435 0.821907
0.435758 0.435758 0.787546
0.664795 0.253994 0.702521
0.813389 0.0293556 0.580979
0.871421 -0.204955 0.445667
0.848795 -0.422743 0.317545
0.764826 -0.608961 0.210256
0.639485 -0.757762 0.12983
0.489227 -0.868758 0.0769198
0.32629 -0.943987 0.049229
0.159568 -0.986241 0.0432141
-0.00423562 -0.998475 0.0550515
-0.15977 -0.983814 0.0811353
-0.302652 -0.945729 0.118313
-0.429452 -0.888079 0.163972
-0.537845 -0.814901 0.216007
-0.626687 -0.730008 0.272677
-0.695895 -0.636605 0.332361
-0.746199 -0.537148 0.393267
-0.778891 -0.433497 0.45322
-0.79572 -0.327277 0.509627
-0.79891 -0.220225 0.559682
-0.791201 -0.114364 0.600768
-0.775773 -0.0119173 0.630899
-0.755995 0.0849549 0.649041
-0.735046 0.174441 0.655192
-0.715568 0.255265 0.650233
-0.699428 0.326727 0.635649
-0.687676 0.388633 0.613242
-0.680642 0.441183 0.584879
-0.678112 0.484861 0.552335
-0.679528 0.520352 0.51718
-0.684163 0.548468 0.480732
-0.691247 0.570105 0.444026
-0.70005 0.58619 0.407813
-0.709918 0.597669 0.37257
-0.720262 0.605497 0.338519
-0.730527 0.61066 0.305655
-0.74013 0.614215 0.273767
-0.748407 0.617324 0.242483
-0.754564 0.621268 0.211329
-0.757655 0.62739 0.179836
-0.756629 0.636941 0.14771
-0.750424 0.650864 0.115062
-0.738086 0.669621 0.0826832
-0.718892 0.693167 0.0520925
-0.69252 0.720982 0.0245181
-0.660312 0.750989 0.001646
-0.632824 0.774276 -0.00548691
-0.304218 0.620047 0.723183
-0.0738486 0.651504 0.755042
0.209586 0.610368 0.763888
0.486957 0.486957 0.725083
0.710217 0.293566 0.639852
0.849013 0.0598774 0.524969
0.897216 -0.180983 0.4028
0.867027 -0.403743 0.291985
0.778189 -0.594171 0.203426
0.649998 -0.746747 0.140965
0.497939 -0.86097 0.103857
0.333498 -0.938534 0.0890644
0.165241 -0.981883 0.0927379
-4.00377e-05 -0.993815 0.111044
-0.156637 -0.977598 0.140595
-0.299772 -0.937132 0.178663
-0.425805 -0.876842 0.223244
-0.532479 -0.801223 0.272961
-0.618926 -0.714235 0.326803
-0.685381 -0.618874 0.38373
-0.732775 -0.517145 0.442268
-0.762434 -0.410444 0.500231
-0.77602 -0.300139 0.554715
-0.775689 -0.188071 0.602441
-0.764246 -0.0767247 0.640344
-0.745114 0.0309989 0.666216
-0.722015 0.132265 0.679118
-0.698469 0.224778 0.679423
-0.677332 0.307049 0.668537
-0.66052 0.378411 0.648473
-0.648992 0.438869 0.621453
-0.642908 0.488903 0.589613
-0.641875 0.529301 0.554831
-0.645182 0.561028 0.51864
-0.651988 0.585143 0.482202
-0.661442 0.60274 0.446316
-0.672747 0.614914 0.411451
-0.685167 0.622753 0.37779
-0.698011 0.627349 0.345273
-0.710588 0.629835 0.313644
-0.722151 0.631426 0.282489
-0.731849 0.633444 0.251288
-0.7387 0.637293 0.219501
-0.741607 0.644329 0.186708
-0.739437 0.655654 0.152808
-0.731143 0.671896 0.11826
-0.715888 0.693117 0.08422
-0.693167 0.718892 0.0520925
-0.663147 0.748129 0.0232209
-0.630933 0.775824 0.00460803
-0.297686 0.692647 0.656981
-0.0383958 0.715732 0.697319
0.253994 0.664795 0.702521
0.530823 0.530823 0.660647
0.747409 0.328324 0.577567
0.87738 0.0879361 0.471669
0.917874 -0.157764 0.364167
0.8824 -0.384521 0.271133
0.790387 -0.578724 0.200913
0.660128 -0.734883 0.155496
0.506173 -0.852109 0.13304
0.339532 -0.931576 0.129938
0.168829 -0.975347 0.142109
0.00131682 -0.986169 0.165735
-0.156685 -0.967664 0.197679
-0.299948 -0.924378 0.235705
-0.424739 -0.861411 0.278509
-0.529069 -0.78366 0.325519
-0.612521 -0.695046 0.376471
-0.675729 -0.598124 0.430856
-0.719821 -0.494264 0.487403
-0.746087 -0.384298 0.543755
-0.756038 -0.269369 0.596529
-0.751721 -0.15158 0.641825
-0.736037 -0.0341235 0.67608
-0.712737 0.0791684 0.696949
-0.685988 0.18463 0.703798
-0.659703 0.279473 0.69763
-0.63694 0.362109 0.680577
-0.61962 0.432074 0.655273
-0.608562 0.489742 0.624345
-0.603735 0.535999 0.590092
-0.604567 0.572009 0.55435
-0.610202 0.599051 0.51845
-0.619689 0.618431 0.483247
-0.632075 0.631438 0.449185
-0.646447 0.639327 0.416375
-0.661934 0.643328 0.384673
-0.677678 0.644683 0.353746
-0.692798 0.644687 0.323126
-0.706344 0.644722 0.292251
-0.717269 0.646256 0.260534
-0.724424 0.650744 0.227469
-0.726614 0.65944 0.192796
-0.722705 0.673155 0.156718
-0.711753 0.692091 0.120071
-0.693117 0.715888 0.08422
-0.666564 0.743721 0.050708
-0.633853 0.773109 0.023061
-0.60651 0.795005 0.0105533
-0.486812 0.681772 0.546078
-0.277791 0.75133 0.598612
-0.00355995 0.76934 0.63883
0.293566 0.710217 0.639852
0.567756 0.567756 0.596076
0.777304 0.358542 0.516958
0.899619 0.113616 0.421635
0.934346 -0.135393 0.329647
0.895445 -0.36529 0.254444
0.801455 -0.562889 0.202052
0.669471 -0.722438 0.172893
0.513237 -0.842393 0.164198
0.343611 -0.923255 0.171848
0.169666 -0.966712 0.191526
-0.000548903 -0.975629 0.219427
-0.159957 -0.954226 0.252719
-0.302939 -0.907888 0.289769
-0.42588 -0.842413 0.330099
-0.527276 -0.762949 0.374017
-0.607287 -0.673137 0.422006
-0.666969 -0.574855 0.47402
-0.707574 -0.468662 0.528862
-0.730257 -0.354769 0.583835
-0.73627 -0.234177 0.634876
-0.727514 -0.109501 0.677298
-0.707038 0.0149767 0.707017
-0.679047 0.134151 0.721733
-0.648283 0.243371 0.721457
-0.6191 0.339438 0.708165
-0.594742 0.420907 0.684923
-0.57708 0.487791 0.65501
-0.56676 0.541042 0.621335
-0.563553 0.582081 0.586166
-0.566717 0.612498 0.55107
-0.575257 0.633893 0.516972
-0.588079 0.647807 0.484262
-0.604073 0.655707 0.452929
-0.622135 0.659002 0.422687
-0.641179 0.659073 0.393081
-0.660117 0.657324 0.363554
-0.677836 0.655223 0.333497
-0.693176 0.654314 0.30229
-0.704912 0.656152 0.269377
-0.711785 0.662133 0.234397
-0.712587 0.673251 0.197366
-0.706276 0.689883 0.158857
-0.692091 0.711753 0.120071
-0.669621 0.738086 0.0826832
-0.639263 0.767423 0.049043
-0.606672 0.794518 0.0262608
-0.486639 0.7298 0.480182
-0.254159 0.799791 0.543817
0.0293556 0.813389 0.580979
0.328324 0.747409 0.577567
0.598377 0.598377 0.532813
0.800891 0.384624 0.458953
0.916764 0.137064 0.375177
0.947412 -0.113933 0.299048
0.906532 -0.346245 0.241484
0.811338 -0.546913 0.20644
0.677633 -0.709635 0.192955
0.518543 -0.831957 0.197386
0.345126 -0.913586 0.215056
0.167296 -0.955909 0.241352
-0.00583928 -0.962139 0.272496
-0.166407 -0.937354 0.306065
-0.308575 -0.887903 0.341189
-0.429095 -0.820201 0.378348
-0.527138 -0.739419 0.41879
-0.60351 -0.64864 0.463725
-0.659636 -0.548829 0.513485
-0.696779 -0.439575 0.566809
-0.715802 -0.320428 0.620446
-0.717564 -0.192427 0.669384
-0.70378 -0.0591575 0.707951
-0.677765 0.073418 0.731604
-0.644398 0.198482 0.738483
-0.609161 0.310362 0.729793
-0.576897 0.405768 0.708902
-0.550983 0.483848 0.679933
-0.533178 0.545463 0.646677
-0.523935 0.59236 0.612047
-0.522842 0.626578 0.577958
-0.528991 0.650137 0.545427
-0.541209 0.664925 0.514751
-0.558189 0.672684 0.485718
-0.578557 0.675039 0.457814
-0.600922 0.673547 0.430381
-0.623899 0.669752 0.402719
-0.646124 0.665236 0.374145
-0.666249 0.66164 0.344013
-0.682925 0.660623 0.311754
-0.694816 0.66372 0.276959
-0.700645 0.672105 0.239524
-0.699288 0.686342 0.199825
-0.689883 0.706276 0.158857
-0.671896 0.731143 0.11826
-0.645265 0.759738 0.0801982
-0.612082 0.789305 0.0485078
-0.584236 0.810994 0.0309185
-0.651793 0.66867 0.357836
-0.474752 0.768624 0.428751
-0.229503 0.839365 0.492741
0.0598774 0.849013 0.524969
0.358542 0.777304 0.516958
0.623415 0.623415 0.471919
0.819135 0.407022 0.404167
0.929721 0.158454 0.332432
0.9577 -0.0934189 0.272181
0.915918 -0.327533 0.231982
0.819945 -0.530962 0.213936
0.684268 -0.696576 0.215778
0.521612 -0.820773 0.232923
0.343619 -0.902398 0.260006
0.16141 -0.942684 0.29205
-0.0146687 -0.945477 0.32536
-0.176031 -0.916943 0.35809
-0.316886 -0.864424 0.390325
-0.434607 -0.794766 0.423631
-0.529172 -0.712861 0.460223
-0.602019 -0.620943 0.501999
-0.654836 -0.518804 0.549575
-0.688719 -0.404891 0.60144
-0.704009 -0.278128 0.653465
-0.700988 -0.140022 0.699292
-0.681205 0.00401835 0.732082
-0.648526 0.14545 0.747167
-0.608866 0.275387 0.743939
-0.568647 0.387502 0.725591
-0.533161 0.479172 0.697233
-0.505804 0.550801 0.663913
-0.488169 0.604478 0.629521
-0.48052 0.642873 0.596502
-0.482274 0.668618 0.566005
-0.492321 0.68409 0.538182
-0.509221 0.691391 0.512516
-0.531315 0.692411 0.48813
-0.556834 0.688916 0.464037
-0.583986 0.68262 0.439306
-0.611037 0.675248 0.413128
-0.636341 0.668565 0.384826
-0.658353 0.664352 0.353847
-0.675618 0.664283 0.319793
-0.686789 0.669707 0.282513
-0.690677 0.681379 0.242254
-0.686342 0.699288 0.199825
-0.673155 0.722705 0.156718
-0.650864 0.750424 0.115062
-0.620109 0.780675 0.0775343
-0.586847 0.808092 0.0509654
-0.653394 0.6936 0.303307
-0.45892 0.800618 0.38523
-0.204955 0.871421 0.445667
0.0879361 0.87738 0.471669
0.384624 0.800891 0.458953
0.643623 0.643623 0.414124
0.832925 0.426197 0.352975
0.939266 0.177976 0.293435
0.965707 -0.0738383 0.248913
0.923785 -0.309215 0.225849
0.827183 -0.515073 0.224651
0.689081 -0.683185 0.241715
0.522061 -0.808598 0.271332
0.338741 -0.889291 0.307274
0.151779 -0.926566 0.344149
-0.0271613 -0.925211 0.378479
-0.188977 -0.892648 0.409228
-0.328222 -0.837105 0.437636
-0.443103 -0.765564 0.466445
-0.534454 -0.682285 0.498844
-0.604265 -0.588304 0.537366
-0.6543 -0.481937 0.582776
-0.68519 -0.360329 0.632991
-0.696399 -0.222053 0.682437
-0.687431 -0.0701241 0.722857
-0.659923 0.0866768 0.746317
-0.618946 0.236182 0.749082
-0.57198 0.36773 0.733221
-0.526432 0.475612 0.704743
-0.487809 0.559108 0.670404
-0.459344 0.620554 0.635543
-0.442435 0.663433 0.603413
-0.437196 0.691233 0.575376
-0.442862 0.707007 0.551374
-0.458027 0.713336 0.530436
-0.480805 0.712436 0.511137
-0.509004 0.706307 0.491981
-0.540306 0.696859 0.471653
-0.572449 0.685989 0.449133
-0.603343 0.675623 0.423686
-0.631125 0.667692 0.394803
-0.654152 0.664023 0.36216
-0.670986 0.666135 0.325642
-0.680392 0.67497 0.28545
-0.681379 0.690677 0.242254
-0.673251 0.712587 0.197366
-0.655654 0.739437 0.152808
-0.628737 0.769645 0.111066
-0.594833 0.800251 0.0759752
-0.565902 0.822683 0.0542928
-0.785651 0.591998 0.179695
-0.646109 0.71504 0.266946
-0.441278 0.82697 0.348417
-0.180983 0.897216 0.4028
0.113616 0.899619 0.421635
0.407022 0.819135 0.404167
0.659727 0.659727 0.35989
0.843048 0.442593 0.305585
0.946035 0.195845 0.258191
0.971816 -0.0551059 0.229207
0.930255 -0.291225 0.22319
0.832955 -0.499099 0.238928
0.691818 -0.669155 0.271331
0.519562 -0.794921 0.313299
0.33019 -0.873581 0.357534
0.138176 -0.906809 0.398252
-0.0435494 -0.900625 0.43241
-0.205661 -0.863741 0.46006
-0.343362 -0.805026 0.483772
-0.455832 -0.731189 0.507524
-0.544721 -0.645414 0.535462
-0.612391 -0.547098 0.570667
-0.660341 -0.432701 0.613775
-0.688203 -0.298078 0.661457
-0.694022 -0.142506 0.705709
-0.676553 0.0271573 0.735893
-0.638512 0.196444 0.744119
-0.58739 0.349413 0.729989
-0.532583 0.475759 0.700006
-0.481994 0.572779 0.663028
-0.440813 0.642878 0.626412
-0.41195 0.690467 0.594603
-0.396689 0.720085 0.569311
-0.395075 0.735648 0.550215
-0.406103 0.740337 0.535706
-0.427868 0.736759 0.52356
-0.457794 0.727179 0.511503
-0.492935 0.71372 0.497613
-0.530315 0.698485 0.480505
-0.567193 0.683602 0.459326
-0.601212 0.671197 0.433633
-0.63043 0.663286 0.403249
-0.653268 0.66157 0.368194
-0.66845 0.66717 0.328724
-0.67497 0.680392 0.28545
-0.672105 0.700645 0.239524
-0.65944 0.726614 0.192796
-0.636941 0.756629 0.14771
-0.605461 0.78864 0.107068
-0.571151 0.817178 0.0774971
-0.787205 0.599589 0.144225
-0.635427 0.733687 0.240701
-0.422743 0.848795 0.317545
-0.157764 0.917874 0.364167
0.137064 0.916764 0.375177
0.426197 0.832925 0.352975
0.67239 0.67239 0.309487
0.850171 0.456631 0.262103
0.950539 0.212305 0.226722
0.976316 -0.0370409 0.213154
0.935404 -0.273332 0.224295
0.837153 -0.482664 0.257313
0.692228 -0.653886 0.305374
0.513799 -0.778891 0.359638
0.317667 -0.85423 0.411557
0.120306 -0.882293 0.455067
-0.0642704 -0.870544 0.487876
-0.226877 -0.82885 0.511403
-0.363625 -0.766294 0.529689
-0.474706 -0.688758 0.547965
-0.562426 -0.597757 0.571282
-0.629141 -0.490431 0.603041
-0.675385 -0.361053 0.643037
-0.698801 -0.205034 0.685302
-0.695497 -0.0254899 0.718076
-0.664718 0.162505 0.729206
-0.612791 0.337395 0.714599
-0.550861 0.482984 0.680645
-0.489297 0.594005 0.63855
-0.435101 0.672988 0.598143
-0.392577 0.725358 0.565454
-0.36445 0.756672 0.542792
-0.352185 0.771674 0.529608
-0.355851 0.774164 0.523489
-0.374033 0.767172 0.521101
-0.404012 0.753257 0.519016
-0.442203 0.73478 0.514348
-0.484722 0.714091 0.505092
-0.527905 0.69359 0.490153
-0.568649 0.675677 0.469146
-0.60453 0.662619 0.442131
-0.633739 0.656333 0.409393
-0.654946 0.658126 0.37137
-0.66717 0.66845 0.328724
-0.669707 0.686789 0.282513
-0.662133 0.711785 0.234397
-0.644329 0.741607 0.186708
-0.616657 0.774297 0.142122
-0.58164 0.80671 0.104466
-0.551182 0.830559 0.0798142
-0.883064 0.468498 0.0265889
-0.783 0.608752 0.127797
-0.622828 0.750112 0.222301
-0.403743 0.867027 0.291985
-0.135393 0.934346 0.329647
0.158454 0.929721 0.332432
0.442593 0.843048 0.305585
0.682202 0.682202 0.263062
0.854847 0.468708 0.222599