# vtk DataFile Version 2.0
tmp/0.000.00-10.000.000.001.0075.vtk
ASCII
DATASET UNSTRUCTURED_GRID
POINTS 5000 float
0.75 0.25 0
1.75 0.25 0
2.75 0.25 0
3.75 0.25 0
4.75 0.25 0
5.75 0.25 0
6.75 0.25 0
7.75 0.25 0
8.75 0.25 0
9.75 0.25 0
10.75 0.25 0
11.75 0.25 0
12.75 0.25 0
13.75 0.25 0
14.75 0.25 0
15.75 0.25 0
16.75 0.25 0
17.75 0.25 0
18.75 0.25 0
19.75 0.25 0
20.75 0.25 0
21.75 0.25 0
22.75 0.25 0
23.75 0.25 0
24.75 0.25 0
25.75 0.25 0
26.75 0.25 0
27.75 0.25 0
28.75 0.25 0
29.75 0.25 0
30.75 0.25 0
31.75 0.25 0
32.75 0.25 0
33.75 0.25 0
34.75 0.25 0
35.75 0.25 0
36.75 0.25 0
37.75 0.25 0
38.75 0.25 0
39.75 0.25 0
40.75 0.25 0
41.75 0.25 0
42.75 0.25 0
43.75 0.25 0
44.75 0.25 0
45.75 0.25 0
46.75 0.25 0
47.75 0.25 0
48.75 0.25 0
49.75 0.25 0
0.25 0.75 0
1.25 0.75 0
2.25 0.75 0
3.25 0.75 0
4.25 0.75 0
5.25 0.75 0
6.25 0.75 0
7.25 0.75 0
8.25 0.75 0
9.25 0.75 0
10.25 0.75 0
11.25 0.75 0
12.25 0.75 0
13.25 0.75 0
14.25 0.75 0
15.25 0.75 0
16.25 0.75 0
17.25 0.75 0
18.25 0.75 0
19.25 0.75 0
20.25 0.75 0
21.25 0.75 0
22.25 0.75 0
23.25 0.75 0
24.25 0.75 0
25.25 0.75 0
26.25 0.75 0
27.25 0.75 0
28.25 0.75 0
29.25 0.75 0
30.25 0.75 0
31.25 0.75 0
32.25 0.75 0
33.25 0.75 0
34.25 0.75 0
35.25 0.75 0
36.25 0.75 0
37.25 0.75 0
38.25 0.75 0
39.25 0.75 0
40.25 0.75 0
41.25 0.75 0
42.25 0.75 0
43.25 0.75 0
44.25 0.75 0
45.25 0.75 0
46.25 0.75 0
47.25 0.75 0
48.25 0.75 0
49.25 0.75 0
0.75 1.25 0
1.75 1.25 0
2.75 1.25 0
3.75 1.25 0
4.75 1.25 0
5.75 1.25 0
6.75 1.25 0
7.75 1.25 0
8.75 1.25 0
9.75 1.25 0
10.75 1.25 0
11.75 1.25 0
12.75 1.25 0
13.75 1.25 0
14.75 1.25 0
15.75 1.25 0
16.75 1.25 0
17.75 1.25 0
18.75 1.25 0
19.75 1.25 0
20.75 1.25 0
21.75 1.25 0
22.75 1.25 0
23.75 1.25 0
24.75 1.25 0
25.75 1.25 0
26.75 1.25 0
27.75 1.25 0
28.75 1.25 0
29.75 1.25 0
30.75 1.25 0
31.75 1.25 0
32.75 1.25 0
33.75 1.25 0
34.75 1.25 0
35.75 1.25 0
36.75 1.25 0
37.75 1.25 0
38.75 1.25 0
39.75 1.25 0
40.75 1.25 0
41.75 1.25 0
42.75 1.25 0
43.75 1.25 0
44.75 1.25 0
45.75 1.25 0
46.75 1.25 0
47.75 1.25 0
48.75 1.25 0
49.75 1.25 0
0.25 1.75 0
1.25 1.75 0
2.25 1.75 0
3.25 1.75 0
4.25 1.75 0
5.25 1.75 0
6.25 1.75 0
7.25 1.75 0
8.25 1.75 0
9.25 1.75 0
10.25 1.75 0
11.25 1.75 0
12.25 1.75 0
13.25 1.75 0
14.25 1.75 0
15.25 1.75 0
16.25 1.75 0
17.25 1.75 0
18.25 1.75 0
19.25 1.75 0
20.25 1.75 0
21.25 1.75 0
22.25 1.75 0
23.25 1.75 0
24.25 1.75 0
25.25 1.75 0
26.25 1.75 0
27.25 1.75 0
28.25 1.75 0
29.25 1.75 0
30.25 1.75 0
31.25 1.75 0
32.25 1.75 0
33.25 1.75 0
34.25 1.75 0
35.25 1.75 0
36.25 1.75 0
37.25 1.75 0
38.25 1.75 0
39.25 1.75 0
40.25 1.75 0
41.25 1.75 0
42.25 1.75 0
43.25 1.75 0
44.25 1.75 0
45.25 1.75 0
46.25 1.75 0
47.25 1.75 0
48.25 1.75 0
49.25 1.75 0
0.75 2.25 0
1.75 2.25 0
2.75 2.25 0
3.75 2.25 0
4.75 2.25 0
5.75 2.25 0
6.75 2.25 0
7.75 2.25 0
8.75 2.25 0
9.75 2.25 0
10.75 2.25 0
11.75 2.25 0
12.75 2.25 0
13.75 2.25 0
14.75 2.25 0
15.75 2.25 0
16.75 2.25 0
17.75 2.25 0
18.75 2.25 0
19.75 2.25 0
20.75 2.25 0
21.75 2.25 0
22.75 2.25 0
23.75 2.25 0
24.75 2.25 0
25.75 2.25 0
26.75 2.25 0
27.75 2.25 0
28.75 2.25 0
29.75 2.25 0
30.75 2.25 0
31.75 2.25 0
32.75 2.25 0
33.75 2.25 0
34.75 2.25 0
35.75 2.25 0
36.75 2.25 0
37.75 2.25 0
38.75 2.25 0
39.75 2.25 0
40.75 2.25 0
41.75 2.25 0
42.75 2.25 0
43.75 2.25 0
44.75 2.25 0
45.75 2.25 0
46.75 2.25 0
47.75 2.25 0
48.75 2.25 0
49.75 2.25 0
0.25 2.75 0
1.25 2.75 0
2.25 2.75 0
3.25 2.75 0
4.25 2.75 0
5.25 2.75 0
6.25 2.75 0
7.25 2.75 0
8.25 2.75 0
9.25 2.75 0
10.25 2.75 0
11.25 2.75 0
12.25 2.75 0
13.25 2.75 0
14.25 2.75 0
15.25 2.75 0
16.25 2.75 0
17.25 2.75 0
18.25 2.75 0
19.25 2.75 0
20.25 2.75 0
21.25 2.75 0
22.25 2.75 0
23.25 2.75 0
24.25 2.75 0
25.25 2.75 0
26.25 2.75 0
27.25 2.75 0
28.25 2.75 0
29.25 2.75 0
30.25 2.75 0
31.25 2.75 0
32.25 2.75 0
33.25 2.75 0
34.25 2.75 0
35.25 2.75 0
36.25 2.75 0
37.25 2.75 0
38.25 2.75 0
39.25 2.75 0
40.25 2.75 0
41.25 2.75 0
42.25 2.75 0
43.25 2.75 0
44.25 2.75 0
45.25 2.75 0
46.25 2.75 0
47.25 2.75 0
48.25 2.75 0
49.25 2.75 0
0.75 3.25 0
1.75 3.25 0
2.75 3.25 0
3.75 3.25 0
4.75 3.25 0
5.75 3.25 0
6.75 3.25 0
7.75 3.25 0
8.75 3.25 0
9.75 3.25 0
10.75 3.25 0
11.75 3.25 0
12.75 3.25 0
13.75 3.25 0
14.75 3.25 0
15.75 3.25 0
16.75 3.25 0
17.75 3.25 0
18.75 3.25 0
19.75 3.25 0
20.75 3.25 0
21.75 3.25 0
22.75 3.25 0
23.75 3.25 0
24.75 3.25 0
25.75 3.25 0
26.75 3.25 0
27.75 3.25 0
28.75 3.25 0
29.75 3.25 0
30.75 3.25 0
31.75 3.25 0
32.75 3.25 0
33.75 3.25 0
34.75 3.25 0
35.75 3.25 0
36.75 3.25 0
37.75 3.25 0
38.75 3.25 0
39.75 3.25 0
40.75 3.25 0
41.75 3.25 0
42.75 3.25 0
43.75 3.25 0
44.75 3.25 0
45.75 3.25 0
46.75 3.25 0
47.75 3.25 0
48.75 3.25 0
49.75 3.25 0
0.25 3.75 0
1.25 3.75 0
2.25 3.75 0
3.25 3.75 0
4.25 3.75 0
5.25 3.75 0
6.25 3.75 0
7.25 3.75 0
8.25 3.75 0
9.25 3.75 0
10.25 3.75 0
11.25 3.75 0
12.25 3.75 0
13.25 3.75 0
14.25 3.75 0
15.25 3.75 0
16.25 3.75 0
17.25 3.75 0
18.25 3.75 0
19.25 3.75 0
20.25 3.75 0
21.25 3.75 0
22.25 3.75 0
23.25 3.75 0
24.25 3.75 0
25.25 3.75 0
26.25 3.75 0
27.25 3.75 0
28.25 3.75 0
29.25 3.75 0
30.25 3.75 0
31.25 3.75 0
32.25 3.75 0
33.25 3.75 0
34.25 3.75 0
35.25 3.75 0
36.25 3.75 0
37.25 3.75 0
38.25 3.75 0
39.25 3.75 0
40.25 3.75 0
41.25 3.75 0
42.25 3.75 0
43.25 3.75 0
44.25 3.75 0
45.25 3.75 0
46.25 3.75 0
47.25 3.75 0
48.25 3.75 0
49.25 3.75 0
0.75 4.25 0
1.75 4.25 0
2.75 4.25 0
3.75 4.25 0
4.75 4.25 0
5.75 4.25 0
6.75 4.25 0
7.75 4.25 0
8.75 4.25 0
9.75 4.25 0
10.75 4.25 0
11.75 4.25 0
12.75 4.25 0
13.75 4.25 0
14.75 4.25 0
15.75 4.25 0
16.75 4.25 0
17.75 4.25 0
18.75 4.25 0
19.75 4.25 0
20.75 4.25 0
21.75 4.25 0
22.75 4.25 0
23.75 4.25 0
24.75 4.25 0
25.75 4.25 0
26.75 4.25 0
27.75 4.25 0
28.75 4.25 0
29.75 4.25 0
30.75 4.25 0
31.75 4.25 0
32.75 4.25 0
33.75 4.25 0
34.75 4.25 0
35.75 4.25 0
36.75 4.25 0
37.75 4.25 0
38.75 4.25 0
39.75 4.25 0
40.75 4.25 0
41.75 4.25 0
42.75 4.25 0
43.75 4.25 0
44.75 4.25 0
45.75 4.25 0
46.75 4.25 0
47.75 4.25 0
48.75 4.25 0
49.75 4.25 0
0.25 4.75 0
1.25 4.75 0
2.25 4.75 0
3.25 4.75 0
4.25 4.75 0
5.25 4.75 0
6.25 4.75 0
7.25 4.75 0
8.25 4.75 0
9.25 4.75 0
10.25 4.75 0
11.25 4.75 0
12.25 4.75 0
13.25 4.75 0
14.25 4.75 0
15.25 4.75 0
16.25 4.75 0
17.25 4.75 0
18.25 4.75 0
19.25 4.75 0
20.25 4.75 0
21.25 4.75 0
22.25 4.75 0
23.25 4.75 0
24.25 4.75 0
25.25 4.75 0
26.25 4.75 0
27.25 4.75 0
28.25 4.75 0
29.25 4.75 0
30.25 4.75 0
31.25 4.75 0
32.25 4.75 0
33.25 4.75 0
34.25 4.75 0
35.25 4.75 0
36.25 4.75 0
37.25 4.75 0
38.25 4.75 0
39.25 4.75 0
40.25 4.75 0
41.25 4.75 0
42.25 4.75 0
43.25 4.75 0
44.25 4.75 0
45.25 4.75 0
46.25 4.75 0
47.25 4.75 0
48.25 4.75 0
49.25 4.75 0
0.75 5.25 0
1.75 5.25 0
2.75 5.25 0
3.75 5.25 0
4.75 5.25 0
5.75 5.25 0
6.75 5.25 0
7.75 5.25 0
8.75 5.25 0
9.75 5.25 0
10.75 5.25 0
11.75 5.25 0
12.75 5.25 0
13.75 5.25 0
14.75 5.25 0
15.75 5.25 0
16.75 5.25 0
17.75 5.25 0
18.75 5.25 0
19.75 5.25 0
20.75 5.25 0
21.75 5.25 0
22.75 5.25 0
23.75 5.25 0
24.75 5.25 0
25.75 5.25 0
26.75 5.25 0
27.75 5.25 0
28.75 5.25 0
29.75 5.25 0
30.75 5.25 0
31.75 5.25 0
32.75 5.25 0
33.75 5.25 0
34.75 5.25 0
35.75 5.25 0
36.75 5.25 0
37.75 5.25 0
38.75 5.25 0
39.75 5.25 0
40.75 5.25 0
41.75 5.25 0
42.75 5.25 0
43.75 5.25 0
44.75 5.25 0
45.75 5.25 0
46.75 5.25 0
47.75 5.25 0
48.75 5.25 0
49.75 5.25 0
0.25 5.75 0
1.25 5.75 0
2.25 5.75 0
3.25 5.75 0
4.25 5.75 0
5.25 5.75 0
6.25 5.75 0
7.25 5.75 0
8.25 5.75 0
9.25 5.75 0
10.25 5.75 0
11.25 5.75 0
12.25 5.75 0
13.25 5.75 0
14.25 5.75 0
15.25 5.75 0
16.25 5.75 0
17.25 5.75 0
18.25 5.75 0
19.25 5.75 0
20.25 5.75 0
21.25 5.75 0
22.25 5.75 0
23.25 5.75 0
24.25 5.75 0
25.25 5.75 0
26.25 5.75 0
27.25 5.75 0
28.25 5.75 0
29.25 5.75 0
30.25 5.75 0
31.25 5.75 0
32.25 5.75 0
33.25 5.75 0
34.25 5.75 0
35.25 5.75 0
36.25 5.75 0
37.25 5.75 0
38.25 5.75 0
39.25 5.75 0
40.25 5.75 0
41.25 5.75 0
42.25 5.75 0
43.25 5.75 0
44.25 5.75 0
45.25 5.75 0
46.25 5.75 0
47.25 5.75 0
48.25 5.75 0
49.25 5.75 0
0.75 6.25 0
1.75 6.25 0
2.75 6.25 0
3.75 6.25 0
4.75 6.25 0
5.75 6.25 0
6.75 6.25 0
7.75 6.25 0
8.75 6.25 0
9.75 6.25 0
10.75 6.25 0
11.75 6.25 0
12.75 6.25 0
13.75 6.25 0
14.75 6.25 0
15.75 6.25 0
16.75 6.25 0
17.75 6.25 0
18.75 6.25 0
19.75 6.25 0
20.75 6.25 0
21.75 6.25 0
22.75 6.25 0
23.75 6.25 0
24.75 6.25 0
25.75 6.25 0
26.75 6.25 0
27.75 6.25 0
28.75 6.25 0
29.75 6.25 0
30.75 6.25 0
31.75 6.25 0
32.75 6.25 0
33.75 6.25 0
34.75 6.25 0
35.75 6.25 0
36.75 6.25 0
37.75 6.25 0
38.75 6.25 0
39.75 6.25 0
40.75 6.25 0
41.75 6.25 0
42.75 6.25 0
43.75 6.25 0
44.75 6.25 0
45.75 6.25 0
46.75 6.25 0
47.75 6.25 0
48.75 6.25 0
49.75 6.25 0
0.25 6.75 0
1.25 6.75 0
2.25 6.75 0
3.25 6.75 0
4.25 6.75 0
5.25 6.75 0
6.25 6.75 0
7.25 6.75 0
8.25 6.75 0
9.25 6.75 0
10.25 6.75 0
11.25 6.75 0
12.25 6.75 0
13.25 6.75 0
14.25 6.75 0
15.25 6.75 0
16.25 6.75 0
17.25 6.75 0
18.25 6.75 0
19.25 6.75 0
20.25 6.75 0
21.25 6.75 0
22.25 6.75 0
23.25 6.75 0
24.25 6.75 0
25.25 6.75 0
26.25 6.75 0
27.25 6.75 0
28.25 6.75 0
29.25 6.75 0
30.25 6.75 0
31.25 6.75 0
32.25 6.75 0
33.25 6.75 0
34.25 6.75 0
35.25 6.75 0
36.25 6.75 0
37.25 6.75 0
38.25 6.75 0
39.25 6.75 0
40.25 6.75 0
41.25 6.75 0
42.25 6.75 0
43.25 6.75 0
44.25 6.75 0
45.25 6.75 0
46.25 6.75 0
47.25 6.75 0
48.25 6.75 0
49.25 6.75 0
0.75 7.25 0
1.75 7.25 0
2.75 7.25 0
3.75 7.25 0
4.75 7.25 0
5.75 7.25 0
6.75 7.25 0
7.75 7.25 0
8.75 7.25 0
9.75 7.25 0
10.75 7.25 0
11.75 7.25 0
12.75 7.25 0
13.75 7.25 0
14.75 7.25 0
15.75 7.25 0
16.75 7.25 0
17.75 7.25 0
18.75 7.25 0
19.75 7.25 0
20.75 7.25 0
21.75 7.25 0
22.75 7.25 0
23.75 7.25 0
24.75 7.25 0
25.75 7.25 0
26.75 7.25 0
27.75 7.25 0
28.75 7.25 0
29.75 7.25 0
30.75 7.25 0
31.75 7.25 0
32.75 7.25 0
33.75 7.25 0
34.75 7.25 0
35.75 7.25 0
36.75 7.25 0
37.75 7.25 0
38.75 7.25 0
39.75 7.25 0
40.75 7.25 0
41.75 7.25 0
42.75 7.25 0
43.75 7.25 0
44.75 7.25 0
45.75 7.25 0
46.75 7.25 0
47.75 7.25 0
48.75 7.25 0
49.75 7.25 0
0.25 7.75 0
1.25 7.75 0
2.25 7.75 0
3.25 7.75 0
4.25 7.75 0
5.25 7.75 0
6.25 7.75 0
7.25 7.75 0
8.25 7.75 0
9.25 7.75 0
10.25 7.75 0
11.25 7.75 0
12.25 7.75 0
13.25 7.75 0
14.25 7.75 0
15.25 7.75 0
16.25 7.75 0
17.25 7.75 0
18.25 7.75 0
19.25 7.75 0
20.25 7.75 0
21.25 7.75 0
[...]
POINT_DATA 5000
VECTORS velocity float
0.315842 0.248195 0.915774
0.40031 0.14776 0.904389
0.500817 0.0238406 0.865225
0.596333 -0.121946 0.793421
0.667795 -0.280977 0.689276
0.702241 -0.440303 0.559456
0.694792 -0.587363 0.415052
0.6476 -0.713117 0.268473
0.567273 -0.813032 0.131075
0.462431 -0.886574 0.0119824
0.342065 -0.936066 -0.0822878
0.214639 -0.965436 -0.147861
0.0876089 -0.979127 -0.183398
-0.0328871 -0.981258 -0.18987
-0.142251 -0.975096 -0.170157
-0.237547 -0.962839 -0.1285
-0.317474 -0.945689 -0.0698798
-0.382183 -0.924087 0.000565183
-0.432967 -0.898028 0.0780024
-0.471896 -0.867345 0.158201
-0.501445 -0.831905 0.237671
-0.524193 -0.791726 0.313676
-0.54259 -0.747006 0.384159
-0.558819 -0.698105 0.447628
-0.574708 -0.645502 0.503029
-0.591697 -0.589749 0.549628
-0.610819 -0.531433 0.586923
-0.6327 -0.471146 0.614583
-0.65756 -0.409467 0.632417
-0.685225 -0.346954 0.640382
-0.715159 -0.284135 0.638604
-0.746513 -0.221506 0.627418
-0.778205 -0.15954 0.607407
-0.809025 -0.0987004 0.579428
-0.837761 -0.0394545 0.54461
-0.863338 0.0177127 0.504315
-0.88494 0.0723059 0.460058
-0.902096 0.123855 0.41338
-0.914713 0.171976 0.365683
-0.923039 0.216454 0.318035
-0.927552 0.257319 0.270986
-0.928804 0.294907 0.224395
-0.92721 0.329908 0.177317
-0.922795 0.363422 0.127963
-0.914824 0.397058 0.0737668
-0.901266 0.43311 0.0116504
-0.877938 0.474834 -0.0612982
-0.837458 0.526551 -0.146316
-0.769182 0.592044 -0.240505
-0.665315 0.665315 -0.338693
0.248195 0.315842 0.915774
0.315168 0.222724 0.922531
0.421892 0.106449 0.900375
0.535742 -0.0305363 0.843829
0.633156 -0.18411 0.751809
0.696888 -0.343736 0.629438
0.718322 -0.496788 0.487047
0.697049 -0.632883 0.33702
0.638223 -0.745773 0.191034
0.549715 -0.833285 0.0587337
0.440161 -0.896379 -0.0525675
0.317965 -0.938033 -0.137814
0.190851 -0.962229 -0.19414
0.0656108 -0.973101 -0.220841
-0.0521481 -0.974275 -0.219248
-0.15824 -0.968469 -0.192427
-0.25006 -0.957359 -0.144689
-0.326593 -0.941688 -0.081002
-0.388246 -0.921533 -0.00643783
-0.436539 -0.896614 0.0742699
-0.473731 -0.866562 0.157001
-0.502438 -0.831107 0.238364
-0.525325 -0.790171 0.315695
-0.544867 -0.743893 0.386967
-0.563197 -0.692602 0.450679
-0.582015 -0.63678 0.505736
-0.602545 -0.577017 0.551355
-0.625506 -0.513973 0.587004
-0.651126 -0.448354 0.612384
-0.679168 -0.380876 0.627427
-0.708996 -0.312235 0.632324
-0.739664 -0.243084 0.627541
-0.770034 -0.174013 0.613813
-0.798902 -0.105564 0.592125
-0.825119 -0.038269 0.563662
-0.847713 0.0273068 0.529752
-0.865988 0.0905269 0.491803
-0.879597 0.150695 0.451221
-0.888577 0.207121 0.409306
-0.893322 0.259225 0.367121
-0.89449 0.306664 0.325337
-0.892857 0.34944 0.284074
-0.889123 0.387977 0.242763
-0.883684 0.423178 0.20006
-0.876335 0.456483 0.153819
-0.865862 0.489946 0.101175
-0.849393 0.526332 0.0387973
-0.821375 0.569215 -0.0365638
-0.772131 0.622603 -0.127202
-0.687868 0.687868 -0.231679
0.222724 0.315168 0.922531
0.325786 0.216618 0.920294
0.451539 0.091862 0.88751
0.573871 -0.0536627 0.817186
0.670179 -0.212468 0.711138
0.726134 -0.372318 0.578022
0.737172 -0.521099 0.430154
0.706263 -0.650268 0.2799
0.640401 -0.755609 0.13763
0.547891 -0.836473 0.0113209
0.436957 -0.894648 -0.0931294
0.315259 -0.933361 -0.171609
0.189785 -0.956458 -0.221741
0.0667479 -0.967731 -0.242983
-0.0486315 -0.97038 -0.236639
-0.152405 -0.96668 -0.205677
-0.242123 -0.957898 -0.1543
-0.316903 -0.944423 -0.087396
-0.377293 -0.92604 -0.00997871
-0.424975 -0.902236 0.0732558
-0.462368 -0.87246 0.158205
-0.492232 -0.836301 0.24147
-0.51732 -0.793577 0.320336
-0.540122 -0.744358 0.392683
-0.562685 -0.688954 0.456868
-0.5865 -0.627896 0.51163
-0.612444 -0.561905 0.556034
-0.64077 -0.491871 0.589472
-0.671142 -0.418804 0.611695
-0.702748 -0.343773 0.622869
-0.734442 -0.267813 0.623595
-0.764937 -0.191849 0.61487
-0.792971 -0.116649 0.597988
-0.817448 -0.042844 0.574407
-0.837536 0.0289931 0.545613
-0.852729 0.0982608 0.513029
-0.862885 0.164275 0.477957
-0.868238 0.22629 0.441538
-0.869364 0.283595 0.404697
-0.867106 0.335658 0.368049
-0.862433 0.382263 0.331788
-0.856264 0.423626 0.295554
-0.849257 0.460464 0.258334
-0.841557 0.494048 0.218401
-0.832479 0.526254 0.173306
-0.820032 0.559604 0.119963
-0.800116 0.597334 0.0548353
-0.76509 0.64341 -0.0257047
-0.701652 0.701652 -0.123968
-0.592044 0.769182 -0.240505
0.14776 0.40031 0.904389
0.216618 0.325786 0.920294
0.346031 0.222343 0.911497
0.487728 0.0912488 0.868214
0.615572 -0.0608482 0.785728
0.708898 -0.223336 0.669018
0.757067 -0.382909 0.529367
0.759332 -0.528334 0.37984
0.721201 -0.652752 0.231913
0.650663 -0.753476 0.0943996
0.555923 -0.830822 -0.0261766
0.444581 -0.886987 -0.12491
0.323578 -0.925215 -0.19818
0.199315 -0.949144 -0.243718
0.0776323 -0.962248 -0.260867
-0.0364319 -0.967365 -0.250755
-0.13899 -0.966405 -0.216203
-0.227625 -0.960288 -0.161348
-0.301523 -0.949099 -0.0910811
-0.361374 -0.932362 -0.0104593
-0.409061 -0.909356 0.075764
-0.44723 -0.879362 0.163427
-0.478842 -0.84183 0.249062
-0.506785 -0.796471 0.329852
-0.533568 -0.743285 0.403525
-0.561103 -0.68258 0.46824
-0.590566 -0.614988 0.522515
-0.622338 -0.541473 0.565245
-0.656035 -0.463314 0.595784
-0.690639 -0.382015 0.61407
-0.724734 -0.299156 0.620698
-0.756777 -0.216198 0.616886
-0.785352 -0.134328 0.6043
-0.809348 -0.0544126 0.584803
-0.828036 0.0229283 0.560205
-0.84109 0.0971732 0.532095
-0.848577 0.16776 0.50177
-0.850938 0.234033 0.470247
-0.848946 0.295293 0.438284
-0.843628 0.350937 0.406368
-0.836142 0.400622 0.374658
-0.827605 0.444408 0.342886
-0.8189 0.482849 0.310258
-0.810444 0.517056 0.275377
-0.801931 0.548736 0.236213
-0.791964 0.580218 0.190107
-0.777486 0.614492 0.133845
-0.752676 0.655288 0.0638483
-0.706923 0.706923 -0.022797
-0.622603 0.772131 -0.127202
0.106449 0.421892 0.900375
0.222343 0.346031 0.911497
0.374543 0.238737 0.895948
0.528855 0.102219 0.842534
0.659501 -0.055026 0.749687
0.748595 -0.219975 0.625473
0.789495 -0.378991 0.482767
0.784718 -0.521978 0.3343
0.741442 -0.643517 0.190129
0.667954 -0.741975 0.0575272
0.571996 -0.818196 -0.0580949
0.460471 -0.874497 -0.152386
0.339709 -0.914002 -0.221808
0.215726 -0.940119 -0.263893
0.094221 -0.95604 -0.277688
-0.0197293 -0.964297 -0.264086
-0.122137 -0.966484 -0.225811
-0.210528 -0.96321 -0.167044
-0.284153 -0.954276 -0.0928123
-0.343896 -0.938971 -0.00833556
-0.391927 -0.91638 0.0814898
-0.431208 -0.885631 0.172389
-0.464976 -0.846041 0.26079
-0.49628 -0.797211 0.343744
-0.527616 -0.739079 0.418789
-0.560658 -0.671989 0.483833
-0.596097 -0.596776 0.537147
-0.633618 -0.514817 0.577487
-0.672039 -0.427988 0.60431
-0.709615 -0.338472 0.617967
-0.744446 -0.248437 0.619741
-0.774855 -0.159706 0.611632
-0.79962 -0.0735723 0.595982
-0.818061 0.00917628 0.575058
-0.830003 0.0880627 0.550763
-0.835712 0.162683 0.524519
-0.83583 0.232551 0.497301
-0.831326 0.297079 0.469725
-0.823412 0.35569 0.442129
-0.813433 0.407986 0.414578
-0.802701 0.453923 0.386814
-0.792308 0.493929 0.358165
-0.782912 0.528974 0.327467
-0.774505 0.560604 0.293027
-0.766123 0.590971 0.252604
-0.755437 0.622837 0.203442
-0.737973 0.659638 0.142388
-0.705538 0.705538 0.0665688
-0.64341 0.76509 -0.0257047
-0.526551 0.837458 -0.146316
0.0238406 0.500817 0.865225
0.091862 0.451539 0.88751
0.238737 0.374543 0.895948
0.409818 0.263816 0.873184
0.573181 0.122485 0.810223
0.704059 -0.038687 0.709087
0.788092 -0.205101 0.580383
0.82252 -0.363425 0.437473
0.81237 -0.504796 0.291952
0.76568 -0.624948 0.152231
0.690503 -0.722923 0.0242396
0.593896 -0.799785 -0.0873544
0.482069 -0.857787 -0.178358
0.360879 -0.899861 -0.244983
0.236172 -0.929182 -0.284331
0.113738 -0.948687 -0.295053
-0.00111267 -0.960631 -0.277825
-0.104167 -0.966305 -0.235382
-0.192865 -0.966016 -0.172094
-0.26657 -0.959293 -0.093259
-0.326457 -0.945202 -0.00435684
-0.3751 -0.922652 0.0895232
-0.415874 -0.890619 0.183976
-0.452343 -0.848285 0.275316
-0.487703 -0.79513 0.360436
-0.524334 -0.731045 0.436632
-0.563478 -0.656491 0.50151
-0.605087 -0.572678 0.553091
-0.647911 -0.48165 0.590105
-0.689865 -0.386128 0.612366
-0.728583 -0.289092 0.620961
-0.761986 -0.19322 0.618096
-0.78864 -0.100472 0.606591
-0.807847 -0.0119864 0.58927
-0.81956 0.0717052 0.568489
-0.824237 0.150337 0.545924
-0.822726 0.223627 0.522602
-0.816191 0.291161 0.499056
-0.806035 0.352457 0.475481
-0.793788 0.407129 0.451827
-0.780959 0.455079 0.427792
-0.768848 0.496645 0.402761
-0.758339 0.532685 0.375725
-0.749682 0.564613 0.345237
-0.742254 0.594414 0.309403
-0.734249 0.624643 0.265894
-0.722148 0.658439 0.212037
-0.699609 0.699609 0.145238
-0.655288 0.752676 0.0638483
-0.569215 0.821375 -0.0365638
-0.0305363 0.535742 0.843829
0.0912488 0.487728 0.868214
0.263816 0.409818 0.873184
0.449882 0.295681 0.842721
0.618632 0.150172 0.771195
0.74749 -0.01377 0.66413
0.826088 -0.180777 0.533759
0.855082 -0.338291 0.39293
0.841174 -0.478665 0.251608
0.792574 -0.598531 0.116564
0.716718 -0.697324 -0.00734687
0.619843 -0.776128 -0.115845
0.507501 -0.837018 -0.204559
0.385227 -0.882691 -0.26918
0.258908 -0.916079 -0.306212
0.134643 -0.93987 -0.313872
0.0181438 -0.956035 -0.292691
-0.0860768 -0.965554 -0.245553
-0.175397 -0.968425 -0.17717
-0.249389 -0.963906 -0.0932243
-0.309655 -0.950849 0.000489798
-0.359295 -0.927992 0.0986799
-0.402184 -0.894153 0.19682
-0.442223 -0.84835 0.291103
-0.48267 -0.789925 0.378218
-0.52558 -0.71876 0.455136
-0.571452 -0.63559 0.519103
-0.619159 -0.542293 0.567944
-0.66631 -0.441917 0.600617
-0.709973 -0.338249 0.617678
-0.7475 -0.235021 0.621296
-0.7771 -0.13514 0.614698
-0.797984 -0.0403466 0.601326
-0.810217 0.0486218 0.58411
-0.814459 0.131575 0.565106
-0.811781 0.208437 0.545496
-0.803556 0.279005 0.52579
-0.791381 0.342942 0.506071
-0.776981 0.399927 0.486168
-0.762064 0.449855 0.465713
-0.748137 0.493012 0.444106
-0.736306 0.530176 0.420436
-0.727061 0.562663 0.393436
-0.720065 0.59232 0.361475
-0.713907 0.621514 0.322578
-0.705747 0.653124 0.274499
-0.690573 0.690573 0.214983
-0.659638 0.737973 0.142388
-0.597334 0.800116 0.0548353
-0.474834 0.877938 -0.0612982
-0.121946 0.596333 0.793421
-0.0536627 0.573871 0.817186
0.102219 0.528855 0.842534
0.295681 0.449882 0.842721
0.492531 0.332289 0.804361
0.663124 0.183376 0.725699
0.788175 0.017849 0.615192
0.861383 -0.148876 0.485649
0.886132 -0.305327 0.348634
0.870004 -0.445015 0.21226
0.82084 -0.56527 0.0818053
0.745176 -0.665746 -0.0386649
0.648346 -0.747421 -0.14495
0.535292 -0.812121 -0.232211
0.411379 -0.862268 -0.2954
0.282743 -0.900528 -0.330312
0.155991 -0.92931 -0.334737
0.0373666 -0.95027 -0.309178
-0.0682956 -0.964042 -0.256824
-0.158388 -0.970296 -0.182864
-0.232834 -0.968017 -0.0934408
-0.293816 -0.955847 0.00532032
-0.345083 -0.932344 0.107947
-0.391062 -0.896131 0.209809
-0.435943 -0.846012 0.306948
-0.482846 -0.781179 0.395752
-0.533151 -0.70161 0.472751
-0.586164 -0.608606 0.534801
-0.639323 -0.505148 0.579733
-0.689051 -0.395667 0.60717
-0.731921 -0.285076 0.618889
-0.765581 -0.177547 0.618355
-0.78905 -0.075744 0.609641
-0.802486 0.0191667 0.596362
-0.806785 0.106971 0.58108
-0.803278 0.187776 0.565229
-0.793575 0.261611 0.549362
-0.779486 0.328323 0.533484
-0.762942 0.387697 0.517311
-0.745855 0.43966 0.5004
-0.729946 0.48448 0.48214
-0.716538 0.52289 0.461692
-0.706354 0.556138 0.437921
-0.699309 0.585973 0.409393
-0.694312 0.614612 0.374411
-0.689016 0.644706 0.331077
-0.679343 0.679343 0.277465
-0.658439 0.722148 0.212037
-0.614492 0.777486 0.133845
-0.526332 0.849393 0.0387973
-0.18411 0.633156 0.751809
-0.0608482 0.615572 0.785728
0.122485 0.573181 0.810223
0.332289 0.492531 0.804361
0.535558 0.371554 0.75837
0.704802 0.22021 0.674361
0.824789 0.054381 0.562819
0.892994 -0.11107 0.436149
0.914745 -0.265961 0.304147
0.897835 -0.404898 0.173062
0.849319 -0.525794 0.0468861
0.774638 -0.628425 -0.0708378
0.678156 -0.713602 -0.17572
0.564259 -0.782852 -0.262212
0.438289 -0.838273 -0.324346
0.306831 -0.882216 -0.357139
0.17718 -0.91675 -0.358017
0.0561949 -0.943147 -0.327592
-0.0509988 -0.961643 -0.269521
-0.141938 -0.971552 -0.189578
-0.21707 -0.97158 -0.0944086
-0.279322 -0.96015 0.00955663
-0.333196 -0.935607 0.116701
-0.383676 -0.896316 0.222284
-0.435083 -0.840801 0.322114
-0.490043 -0.768124 0.412121
-0.548719 -0.678601 0.48827
-0.60868 -0.574599 0.547124
-0.665704 -0.460778 0.58696
-0.715339 -0.343203 0.608689
-0.754376 -0.227634 0.61571
-0.781464 -0.118077 0.612676
-0.796825 -0.0164359 0.603987
-0.801641 0.0768953 0.592839
-0.797569 0.162167 0.581021
-0.786506 0.239649 0.569189
-0.770509 0.309405 0.557301
-0.751732 0.371356 0.544971
-0.732309 0.425494 0.531676
-0.71418 0.472098 0.516789
-0.698892 0.511885 0.499525
-0.68739 0.546067 0.478859
-0.679827 0.576332 0.453515
-0.675382 0.604788 0.422007
-0.672078 0.633909 0.382715
-0.666498 0.666498 0.334006
-0.653124 0.705747 0.274499
-0.622837 0.755437 0.203442
-0.559604 0.820032 0.119963
-0.43311 0.901266 0.0116504
-0.280977 0.667795 0.689276
-0.212468 0.670179 0.711138
-0.055026 0.659501 0.749687
0.150172 0.618632 0.771195
0.371554 0.535558 0.75837
0.576986 0.411508 0.705513
0.742215 0.258931 0.618119
0.856387 0.094224 0.507665
0.920187 -0.0687797 0.385389
0.940152 -0.221312 0.259103
0.923752 -0.35904 0.133312
0.876971 -0.480419 0.0109472
0.803999 -0.585334 -0.104739
0.70818 -0.674408 -0.208937
0.59339 -0.748837 -0.29518
0.465095 -0.810333 -0.356436
0.330517 -0.86084 -0.386928
0.197783 -0.901982 -0.38381
0.0744042 -0.934548 -0.347971
-0.0342959 -0.958304 -0.283684
-0.126175 -0.972171 -0.197392
-0.202402 -0.974562 -0.0962409
-0.266807 -0.963661 0.013072
-0.324715 -0.93754 0.124811
-0.381577 -0.894207 0.234079
-0.441532 -0.831842 0.336287
-0.506123 -0.749507 0.426708
-0.573559 -0.648337 0.500688
-0.639175 -0.53253 0.554858
-0.697263 -0.408985 0.588689
-0.743333 -0.285274 0.605041
-0.775351 -0.167262 0.608978
-0.793526 -0.0580354 0.605762
-0.799388 0.0415983 0.599373
-0.795014 0.131961 0.592064
-0.782665 0.213573 0.584655
-0.764699 0.286737 0.577077
-0.743525 0.35154 0.56885
-0.721522 0.408064 0.559365
-0.700867 0.456625 0.547977
-0.68334 0.497943 0.533947
-0.67011 0.533223 0.516359
-0.661553 0.564124 0.494076
-0.657086 0.592692 0.465783
-0.655027 0.621267 0.430077
-0.652431 0.652431 0.385574
-0.644706 0.689016 0.331077
-0.624643 0.734249 0.265894
-0.580218 0.791964 0.190107
-0.489946 0.865862 0.101175
-0.343736 0.696888 0.629438
-0.223336 0.708898 0.669018
-0.038687 0.704059 0.709087
0.183376 0.663124 0.725699
0.411508 0.576986 0.705513
0.615236 0.450473 0.646961
0.774393 0.298074 0.558093
0.882394 0.136054 0.450412
0.942463 -0.0231283 0.333509
0.961714 -0.172193 0.213203
0.946925 -0.307875 0.0924472
0.902812 -0.429208 -0.0266756
0.832204 -0.536241 -0.141
0.737376 -0.629445 -0.245102
0.621738 -0.70965 -0.331419
0.491013 -0.778095 -0.391757
0.353227 -0.83618 -0.419564
0.217442 -0.884923 -0.411862
0.0917886 -0.92449 -0.369991
-0.0183607 -0.954085 -0.298971
-0.111399 -0.972198 -0.205963
-0.189425 -0.976933 -0.0985908
-0.257301 -0.966195 0.0162225
-0.321175 -0.937688 0.132616
-0.386736 -0.888937 0.245411
-0.457383 -0.817757 0.34939
-0.532696 -0.723567 0.43896
-0.608088 -0.60919 0.509035
-0.676531 -0.48161 0.557097
-0.731714 -0.350179 0.584782
-0.770408 -0.223175 0.597214
-0.792605 -0.105492 0.60054
-0.80023 0.00128369 0.599692
-0.795907 0.097428 0.597529
-0.782373 0.18371 0.595099
-0.762358 0.260706 0.59232
-0.738579 0.328698 0.588608
-0.713692 0.387878 0.583262
-0.690143 0.438614 0.575605
-0.66996 0.481649 0.56495
-0.654548 0.518197 0.55049
-0.644501 0.549918 0.531233
-0.639453 0.578832 0.506017
-0.637964 0.607199 0.473616
-0.637432 0.637432 0.432852
-0.633909 0.672078 0.382715
-0.621514 0.713907 0.322578
-0.590971 0.766123 0.252604
-0.526254 0.832479 0.173306
-0.397058 0.914824 0.0737668
-0.440303 0.702241 0.559456
-0.372318 0.726134 0.578022
-0.219975 0.748595 0.625473
-0.01377 0.74749 0.66413
0.22021 0.704802 0.674361
0.450473 0.615236 0.646961
0.64922 0.487174 0.584102
0.800818 0.336525 0.49542
0.902545 0.178869 0.391686
0.959489 0.0250667 0.280629
0.978867 -0.11914 0.166206
0.966536 -0.251605 0.0500381
0.925832 -0.37205 -0.0664392
0.858152 -0.480815 -0.17998
0.764658 -0.578293 -0.284384
0.64833 -0.664931 -0.370857
0.515262 -0.741359 -0.42999
0.374406 -0.808224 -0.454526
0.235791 -0.865718 -0.441515
0.108072 -0.9132 -0.392921
-0.00353482 -0.94921 -0.314623
-0.0981949 -0.97177 -0.214523
-0.179123 -0.97866 -0.100692
-0.252299 -0.967448 0.0197501
-0.324581 -0.935326 0.140755
-0.401451 -0.879185 0.256654
-0.484653 -0.796607 0.361287
-0.570613 -0.688164 0.448141
-0.651316 -0.559706 0.512364
-0.718106 -0.421802 0.55354
-0.765771 -0.285603 0.576217
-0.793665 -0.158634 0.587309
-0.804093 -0.04383 0.592885
-0.800379 0.0588277 0.596602
-0.785877 0.15035 0.599827
-0.763784 0.231629 0.60248
-0.737192 0.303177 0.603847
-0.709088 0.365316 0.603107
-0.682226 0.41848 0.599535
-0.658918 0.463446 0.59249
-0.640824 0.501448 0.581287
-0.628762 0.534167 0.565087
-0.622568 0.563628 0.542893
-0.621009 0.592053 0.513634
-0.621744 0.621744 0.476308
-0.621267 0.655027 0.430077
-0.614612 0.694312 0.374411
-0.594414 0.742254 0.309403
-0.548736 0.801931 0.236213
-0.456483 0.876335 0.153819
-0.496788 0.718322 0.487047
-0.382909 0.757067 0.529367
-0.205101 0.788092 0.580383
0.017849 0.788175 0.615192
0.258931 0.742215 0.618119
0.487174 0.64922 0.584102
0.678326 0.52077 0.518336
0.821343 0.373537 0.431121
0.916785 0.22199 0.332002
0.971021 0.075261 0.226835
0.991054 -0.0624793 0.117931
0.981709 -0.190301 0.00581098
0.944915 -0.308788 -0.108558
0.880611 -0.41877 -0.221712
0.788825 -0.520686 -0.326558
0.672121 -0.614569 -0.412987
0.537028 -0.700247 -0.470377
0.393475 -0.777321 -0.490867
0.252411 -0.844853 -0.471712
0.122846 -0.901185 -0.415662
0.00960065 -0.944093 -0.32954
-0.0874875 -0.971115 -0.221994
-0.172905 -0.979693 -0.101512
-0.253762 -0.966954 0.0245841
-0.337347 -0.929366 0.149918
-0.428131 -0.863064 0.268003
-0.524781 -0.765912 0.371461
-0.619278 -0.64115 0.453235
-0.700414 -0.499238 0.51008
-0.759945 -0.354223 0.544986
-0.795804 -0.217253 0.565241
-0.810524 -0.0934895 0.578196
-0.808286 0.0164594 0.58856
-0.793246 0.113804 0.598172
-0.769187 0.199813 0.606981
-0.73965 0.275284 0.614115
-0.708014 0.340697 0.618581
-0.677399 0.396559 0.619574
-0.650455 0.443688 0.616481
-0.629133 0.483347 0.608743
-0.614491 0.517247 0.595698
-0.60657 0.547437 0.576529
-0.604317 0.57614 0.55033
-0.605592 0.605592 0.516252
-0.607199 0.637964 0.473616
-0.604788 0.675382 0.422007
-0.59232 0.720065 0.361475
-0.560604 0.774505 0.293027
-0.494048 0.841557 0.218401
-0.363422 0.922795 0.127963
-0.587363 0.694792 0.415052
-0.521099 0.737172 0.430154
-0.378991 0.789495 0.482767
-0.180777 0.826088 0.533759
0.054381 0.824789 0.562819
0.298074 0.774393 0.558093
0.52077 0.678326 0.518336
0.70234 0.550818 0.450909
0.836064 0.408689 0.36602
0.925165 0.265006 0.271739
0.976829 0.127112 0.172185
0.997663 -0.00243105 0.0682794
0.991457 -0.124044 -0.0403226
0.958795 -0.239407 -0.15296
0.898195 -0.350094 -0.265856
0.808556 -0.456747 -0.370971
0.692004 -0.558929 -0.456868
0.555484 -0.655396 -0.511755
0.409844 -0.744303 -0.527296
0.266817 -0.82322 -0.501116
0.135546 -0.889246 -0.436886
0.0202162 -0.939321 -0.342442
-0.0805402 -0.970518 -0.227173
-0.172592 -0.979907 -0.0999667
-0.264085 -0.963982 0.0315795
-0.362164 -0.918192 0.160503
-0.468869 -0.838007 0.279116
-0.577857 -0.722889 0.378832
-0.675951 -0.581068 0.453265
-0.750791 -0.428596 0.502612
-0.797579 -0.281165 0.53368
-0.818629 -0.14745 0.555071
-0.819134 -0.0293465 0.572851
-0.804284 0.0744311 0.589566
-0.778595 0.165605 0.60528
-0.746137 0.245342 0.61894
-0.710742 0.314326 0.62932
-0.675965 0.373153 0.635475
-0.644859 0.422682 0.636786
-0.619725 0.464209 0.632811
-0.601904 0.499478 0.623084
-0.591646 0.530575 0.606997
-0.588072 0.559745 0.58383
-0.589202 0.589202 0.552886
-0.592053 0.621009 0.513634
-0.592692 0.657086 0.465783
-0.585973 0.699309 0.409393
-0.564613 0.749682 0.345237
-0.517056 0.810444 0.275377
-0.423178 0.883684 0.20006
-0.632883 0.697049 0.33702
-0.528334 0.759332 0.37984
-0.363425 0.82252 0.437473
-0.148876 0.861383 0.485649