# vtk DataFile Version 2.0
tmp/0.000.00-10.000.000.001.0030.vtk
ASCII
DATASET UNSTRUCTURED_GRID
POINTS 5100 float
0.5 0 0
1.5 0 0
2.5 0 0
3.5 0 0
4.5 0 0
5.5 0 0
6.5 0 0
7.5 0 0
8.5 0 0
9.5 0 0
10.5 0 0
11.5 0 0
12.5 0 0
13.5 0 0
14.5 0 0
15.5 0 0
16.5 0 0
17.5 0 0
18.5 0 0
19.5 0 0
20.5 0 0
21.5 0 0
22.5 0 0
23.5 0 0
24.5 0 0
25.5 0 0
26.5 0 0
27.5 0 0
28.5 0 0
29.5 0 0
30.5 0 0
31.5 0 0
32.5 0 0
33.5 0 0
34.5 0 0
35.5 0 0
36.5 0 0
37.5 0 0
38.5 0 0
39.5 0 0
40.5 0 0
41.5 0 0
42.5 0 0
43.5 0 0
44.5 0 0
45.5 0 0
46.5 0 0
47.5 0 0
48.5 0 0
49.5 0 0
0 0.5 0
1 0.5 0
2 0.5 0
3 0.5 0
4 0.5 0
5 0.5 0
6 0.5 0
7 0.5 0
8 0.5 0
9 0.5 0
10 0.5 0
11 0.5 0
12 0.5 0
13 0.5 0
14 0.5 0
15 0.5 0
16 0.5 0
17 0.5 0
18 0.5 0
19 0.5 0
20 0.5 0
21 0.5 0
22 0.5 0
23 0.5 0
24 0.5 0
25 0.5 0
26 0.5 0
27 0.5 0
28 0.5 0
29 0.5 0
30 0.5 0
31 0.5 0
32 0.5 0
33 0.5 0
34 0.5 0
35 0.5 0
36 0.5 0
37 0.5 0
38 0.5 0
39 0.5 0
40 0.5 0
41 0.5 0
42 0.5 0
43 0.5 0
44 0.5 0
45 0.5 0
46 0.5 0
47 0.5 0
48 0.5 0
49 0.5 0
50 0.5 0
0.5 1 0
1.5 1 0
2.5 1 0
3.5 1 0
4.5 1 0
5.5 1 0
6.5 1 0
7.5 1 0
8.5 1 0
9.5 1 0
10.5 1 0
11.5 1 0
12.5 1 0
13.5 1 0
14.5 1 0
15.5 1 0
16.5 1 0
17.5 1 0
18.5 1 0
19.5 1 0
20.5 1 0
21.5 1 0
22.5 1 0
23.5 1 0
24.5 1 0
25.5 1 0
26.5 1 0
27.5 1 0
28.5 1 0
29.5 1 0
30.5 1 0
31.5 1 0
32.5 1 0
33.5 1 0
34.5 1 0
35.5 1 0
36.5 1 0
37.5 1 0
38.5 1 0
39.5 1 0
40.5 1 0
41.5 1 0
42.5 1 0
43.5 1 0
44.5 1 0
45.5 1 0
46.5 1 0
47.5 1 0
48.5 1 0
49.5 1 0
0 1.5 0
1 1.5 0
2 1.5 0
3 1.5 0
4 1.5 0
5 1.5 0
6 1.5 0
7 1.5 0
8 1.5 0
9 1.5 0
10 1.5 0
11 1.5 0
12 1.5 0
13 1.5 0
14 1.5 0
15 1.5 0
16 1.5 0
17 1.5 0
18 1.5 0
19 1.5 0
20 1.5 0
21 1.5 0
22 1.5 0
23 1.5 0
24 1.5 0
25 1.5 0
26 1.5 0
27 1.5 0
28 1.5 0
29 1.5 0
30 1.5 0
31 1.5 0
32 1.5 0
33 1.5 0
34 1.5 0
35 1.5 0
36 1.5 0
37 1.5 0
38 1.5 0
39 1.5 0
40 1.5 0
41 1.5 0
42 1.5 0
43 1.5 0
44 1.5 0
45 1.5 0
46 1.5 0
47 1.5 0
48 1.5 0
49 1.5 0
50 1.5 0
0.5 2 0
1.5 2 0
2.5 2 0
3.5 2 0
4.5 2 0
5.5 2 0
6.5 2 0
7.5 2 0
8.5 2 0
9.5 2 0
10.5 2 0
11.5 2 0
12.5 2 0
13.5 2 0
14.5 2 0
15.5 2 0
16.5 2 0
17.5 2 0
18.5 2 0
19.5 2 0
20.5 2 0
21.5 2 0
22.5 2 0
23.5 2 0
24.5 2 0
25.5 2 0
26.5 2 0
27.5 2 0
28.5 2 0
29.5 2 0
30.5 2 0
31.5 2 0
32.5 2 0
33.5 2 0
34.5 2 0
35.5 2 0
36.5 2 0
37.5 2 0
38.5 2 0
39.5 2 0
40.5 2 0
41.5 2 0
42.5 2 0
43.5 2 0
44.5 2 0
45.5 2 0
46.5 2 0
47.5 2 0
48.5 2 0
49.5 2 0
0 2.5 0
1 2.5 0
2 2.5 0
3 2.5 0
4 2.5 0
5 2.5 0
6 2.5 0
7 2.5 0
8 2.5 0
9 2.5 0
10 2.5 0
11 2.5 0
12 2.5 0
13 2.5 0
14 2.5 0
15 2.5 0
16 2.5 0
17 2.5 0
18 2.5 0
19 2.5 0
20 2.5 0
21 2.5 0
22 2.5 0
23 2.5 0
24 2.5 0
25 2.5 0
26 2.5 0
27 2.5 0
28 2.5 0
29 2.5 0
30 2.5 0
31 2.5 0
32 2.5 0
33 2.5 0
34 2.5 0
35 2.5 0
36 2.5 0
37 2.5 0
38 2.5 0
39 2.5 0
40 2.5 0
41 2.5 0
42 2.5 0
43 2.5 0
44 2.5 0
45 2.5 0
46 2.5 0
47 2.5 0
48 2.5 0
49 2.5 0
50 2.5 0
0.5 3 0
1.5 3 0
2.5 3 0
3.5 3 0
4.5 3 0
5.5 3 0
6.5 3 0
7.5 3 0
8.5 3 0
9.5 3 0
10.5 3 0
11.5 3 0
12.5 3 0
13.5 3 0
14.5 3 0
15.5 3 0
16.5 3 0
17.5 3 0
18.5 3 0
19.5 3 0
20.5 3 0
21.5 3 0
22.5 3 0
23.5 3 0
24.5 3 0
25.5 3 0
26.5 3 0
27.5 3 0
28.5 3 0
29.5 3 0
30.5 3 0
31.5 3 0
32.5 3 0
33.5 3 0
34.5 3 0
35.5 3 0
36.5 3 0
37.5 3 0
38.5 3 0
39.5 3 0
40.5 3 0
41.5 3 0
42.5 3 0
43.5 3 0
44.5 3 0
45.5 3 0
46.5 3 0
47.5 3 0
48.5 3 0
49.5 3 0
0 3.5 0
1 3.5 0
2 3.5 0
3 3.5 0
4 3.5 0
5 3.5 0
6 3.5 0
7 3.5 0
8 3.5 0
9 3.5 0
10 3.5 0
11 3.5 0
12 3.5 0
13 3.5 0
14 3.5 0
15 3.5 0
16 3.5 0
17 3.5 0
18 3.5 0
19 3.5 0
20 3.5 0
21 3.5 0
22 3.5 0
23 3.5 0
24 3.5 0
25 3.5 0
26 3.5 0
27 3.5 0
28 3.5 0
29 3.5 0
30 3.5 0
31 3.5 0
32 3.5 0
33 3.5 0
34 3.5 0
35 3.5 0
36 3.5 0
37 3.5 0
38 3.5 0
39 3.5 0
40 3.5 0
41 3.5 0
42 3.5 0
43 3.5 0
44 3.5 0
45 3.5 0
46 3.5 0
47 3.5 0
48 3.5 0
49 3.5 0
50 3.5 0
0.5 4 0
1.5 4 0
2.5 4 0
3.5 4 0
4.5 4 0
5.5 4 0
6.5 4 0
7.5 4 0
8.5 4 0
9.5 4 0
10.5 4 0
11.5 4 0
12.5 4 0
13.5 4 0
14.5 4 0
15.5 4 0
16.5 4 0
17.5 4 0
18.5 4 0
19.5 4 0
20.5 4 0
21.5 4 0
22.5 4 0
23.5 4 0
24.5 4 0
25.5 4 0
26.5 4 0
27.5 4 0
28.5 4 0
29.5 4 0
30.5 4 0
31.5 4 0
32.5 4 0
33.5 4 0
34.5 4 0
35.5 4 0
36.5 4 0
37.5 4 0
38.5 4 0
39.5 4 0
40.5 4 0
41.5 4 0
42.5 4 0
43.5 4 0
44.5 4 0
45.5 4 0
46.5 4 0
47.5 4 0
48.5 4 0
49.5 4 0
0 4.5 0
1 4.5 0
2 4.5 0
3 4.5 0
4 4.5 0
5 4.5 0
6 4.5 0
7 4.5 0
8 4.5 0
9 4.5 0
10 4.5 0
11 4.5 0
12 4.5 0
13 4.5 0
14 4.5 0
15 4.5 0
16 4.5 0
17 4.5 0
18 4.5 0
19 4.5 0
20 4.5 0
21 4.5 0
22 4.5 0
23 4.5 0
24 4.5 0
25 4.5 0
26 4.5 0
27 4.5 0
28 4.5 0
29 4.5 0
30 4.5 0
31 4.5 0
32 4.5 0
33 4.5 0
34 4.5 0
35 4.5 0
36 4.5 0
37 4.5 0
38 4.5 0
39 4.5 0
40 4.5 0
41 4.5 0
42 4.5 0
43 4.5 0
44 4.5 0
45 4.5 0
46 4.5 0
47 4.5 0
48 4.5 0
49 4.5 0
50 4.5 0
0.5 5 0
1.5 5 0
2.5 5 0
3.5 5 0
4.5 5 0
5.5 5 0
6.5 5 0
7.5 5 0
8.5 5 0
9.5 5 0
10.5 5 0
11.5 5 0
12.5 5 0
13.5 5 0
14.5 5 0
15.5 5 0
16.5 5 0
17.5 5 0
18.5 5 0
19.5 5 0
20.5 5 0
21.5 5 0
22.5 5 0
23.5 5 0
24.5 5 0
25.5 5 0
26.5 5 0
27.5 5 0
28.5 5 0
29.5 5 0
30.5 5 0
31.5 5 0
32.5 5 0
33.5 5 0
34.5 5 0
35.5 5 0
36.5 5 0
37.5 5 0
38.5 5 0
39.5 5 0
40.5 5 0
41.5 5 0
42.5 5 0
43.5 5 0
44.5 5 0
45.5 5 0
46.5 5 0
47.5 5 0
48.5 5 0
49.5 5 0
0 5.5 0
1 5.5 0
2 5.5 0
3 5.5 0
4 5.5 0
5 5.5 0
6 5.5 0
7 5.5 0
8 5.5 0
9 5.5 0
10 5.5 0
11 5.5 0
12 5.5 0
13 5.5 0
14 5.5 0
15 5.5 0
16 5.5 0
17 5.5 0
18 5.5 0
19 5.5 0
20 5.5 0
21 5.5 0
22 5.5 0
23 5.5 0
24 5.5 0
25 5.5 0
26 5.5 0
27 5.5 0
28 5.5 0
29 5.5 0
30 5.5 0
31 5.5 0
32 5.5 0
33 5.5 0
34 5.5 0
35 5.5 0
36 5.5 0
37 5.5 0
38 5.5 0
39 5.5 0
40 5.5 0
41 5.5 0
42 5.5 0
43 5.5 0
44 5.5 0
45 5.5 0
46 5.5 0
47 5.5 0
48 5.5 0
49 5.5 0
50 5.5 0
0.5 6 0
1.5 6 0
2.5 6 0
3.5 6 0
4.5 6 0
5.5 6 0
6.5 6 0
7.5 6 0
8.5 6 0
9.5 6 0
10.5 6 0
11.5 6 0
12.5 6 0
13.5 6 0
14.5 6 0
15.5 6 0
16.5 6 0
17.5 6 0
18.5 6 0
19.5 6 0
20.5 6 0
21.5 6 0
22.5 6 0
23.5 6 0
24.5 6 0
25.5 6 0
26.5 6 0
27.5 6 0
28.5 6 0
29.5 6 0
30.5 6 0
31.5 6 0
32.5 6 0
33.5 6 0
34.5 6 0
35.5 6 0
36.5 6 0
37.5 6 0
38.5 6 0
39.5 6 0
40.5 6 0
41.5 6 0
42.5 6 0
43.5 6 0
44.5 6 0
45.5 6 0
46.5 6 0
47.5 6 0
48.5 6 0
49.5 6 0
0 6.5 0
1 6.5 0
2 6.5 0
3 6.5 0
4 6.5 0
5 6.5 0
6 6.5 0
7 6.5 0
8 6.5 0
9 6.5 0
10 6.5 0
11 6.5 0
12 6.5 0
13 6.5 0
14 6.5 0
15 6.5 0
16 6.5 0
17 6.5 0
18 6.5 0
19 6.5 0
20 6.5 0
21 6.5 0
22 6.5 0
23 6.5 0
24 6.5 0
25 6.5 0
26 6.5 0
27 6.5 0
28 6.5 0
29 6.5 0
30 6.5 0
31 6.5 0
32 6.5 0
33 6.5 0
34 6.5 0
35 6.5 0
36 6.5 0
37 6.5 0
38 6.5 0
39 6.5 0
40 6.5 0
41 6.5 0
42 6.5 0
43 6.5 0
44 6.5 0
45 6.5 0
46 6.5 0
47 6.5 0
48 6.5 0
49 6.5 0
50 6.5 0
0.5 7 0
1.5 7 0
2.5 7 0
3.5 7 0
4.5 7 0
5.5 7 0
6.5 7 0
7.5 7 0
8.5 7 0
9.5 7 0
10.5 7 0
11.5 7 0
12.5 7 0
13.5 7 0
14.5 7 0
15.5 7 0
16.5 7 0
17.5 7 0
18.5 7 0
19.5 7 0
20.5 7 0
21.5 7 0
22.5 7 0
23.5 7 0
24.5 7 0
25.5 7 0
26.5 7 0
27.5 7 0
28.5 7 0
29.5 7 0
30.5 7 0
31.5 7 0
32.5 7 0
33.5 7 0
34.5 7 0
35.5 7 0
36.5 7 0
37.5 7 0
38.5 7 0
39.5 7 0
40.5 7 0
41.5 7 0
42.5 7 0
43.5 7 0
44.5 7 0
45.5 7 0
46.5 7 0
47.5 7 0
48.5 7 0
49.5 7 0
0 7.5 0
1 7.5 0
2 7.5 0
3 7.5 0
4 7.5 0
5 7.5 0
6 7.5 0
7 7.5 0
8 7.5 0
9 7.5 0
10 7.5 0
11 7.5 0
12 7.5 0
13 7.5 0
14 7.5 0
15 7.5 0
16 7.5 0
17 7.5 0
18 7.5 0
19 7.5 0
20 7.5 0
21 7.5 0
22 7.5 0
23 7.5 0
24 7.5 0
25 7.5 0
26 7.5 0
27 7.5 0
28 7.5 0
29 7.5 0
30 7.5 0
31 7.5 0
32 7.5 0
33 7.5 0
34 7.5 0
35 7.5 0
36 7.5 0
37 7.5 0
38 7.5 0
39 7.5 0
40 7.5 0
41 7.5 0
42 7.5 0
43 7.5 0
44 7.5 0
45 7.5 0
46 7.5 0
47 7.5 0
48 7.5 0
49 7.5 0
50 7.5 0
0.5 8 0
1.5 8 0
2.5 8 0
3.5 8 0
4.5 8 0
5.5 8 0
6.5 8 0
7.5 8 0
8.5 8 0
9.5 8 0
10.5 8 0
11.5 8 0
12.5 8 0
13.5 8 0
14.5 8 0
15.5 8 0
16.5 8 0
17.5 8 0
18.5 8 0
19.5 8 0
20.5 8 0
21.5 8 0
22.5 8 0
23.5 8 0
24.5 8 0
25.5 8 0
26.5 8 0
27.5 8 0
28.5 8 0
29.5 8 0
30.5 8 0
31.5 8 0
32.5 8 0
33.5 8 0
34.5 8 0
35.5 8 0
36.5 8 0
37.5 8 0
38.5 8 0
39.5 8 0
40.5 8 0
41.5 8 0
42.5 8 0
43.5 8 0
44.5 8 0
45.5 8 0
46.5 8 0
47.5 8 0
48.5 8 0
49.5 8 0
0 8.5 0
1 8.5 0
2 8.5 0
3 8.5 0
4 8.5 0
5 8.5 0
6 8.5 0
7 8.5 0
8 8.5 0
9 8.5 0
10 8.5 0
11 8.5 0
12 8.5 0
13 8.5 0
14 8.5 0
15 8.5 0
16 8.5 0
17 8.5 0
18 8.5 0
19 8.5 0
20 8.5 0
21 8.5 0
22 8.5 0
23 8.5 0
24 8.5 0
25 8.5 0
26 8.5 0
27 8.5 0
28 8.5 0
29 8.5 0
30 8.5 0
31 8.5 0
32 8.5 0
33 8.5 0
34 8.5 0
35 8.5 0
36 8.5 0
37 8.5 0
38 8.5 0
39 8.5 0
40 8.5 0
41 8.5 0
42 8.5 0
43 8.5 0
44 8.5 0
45 8.5 0
46 8.5 0
47 8.5 0
48 8.5 0
49 8.5 0
50 8.5 0
0.5 9 0
1.5 9 0
2.5 9 0
3.5 9 0
4.5 9 0
5.5 9 0
6.5 9 0
7.5 9 0
8.5 9 0
9.5 9 0
10.5 9 0
11.5 9 0
12.5 9 0
13.5 9 0
14.5 9 0
15.5 9 0
16.5 9 0
17.5 9 0
18.5 9 0
19.5 9 0
20.5 9 0
21.5 9 0
22.5 9 0
23.5 9 0
24.5 9 0
25.5 9 0
26.5 9 0
27.5 9 0
28.5 9 0
29.5 9 0
30.5 9 0
31.5 9 0
32.5 9 0
33.5 9 0
34.5 9 0
35.5 9 0
36.5 9 0
37.5 9 0
38.5 9 0
39.5 9 0
40.5 9 0
41.5 9 0
42.5 9 0
43.5 9 0
44.5 9 0
45.5 9 0
46.5 9 0
47.5 9 0
48.5 9 0
49.5 9 0
0 9.5 0
1 9.5 0
2 9.5 0
3 9.5 0
4 9.5 0
5 9.5 0
6 9.5 0
7 9.5 0
8 9.5 0
9 9.5 0
10 9.5 0
11 9.5 0
12 9.5 0
13 9.5 0
14 9.5 0
15 9.5 0
16 9.5 0
17 9.5 0
18 9.5 0
19 9.5 0
20 9.5 0
21 9.5 0
22 9.5 0
23 9.5 0
24 9.5 0
25 9.5 0
26 9.5 0
27 9.5 0
28 9.5 0
29 9.5 0
30 9.5 0
31 9.5 0
32 9.5 0
33 9.5 0
34 9.5 0
35 9.5 0
36 9.5 0
37 9.5 0
38 9.5 0
39 9.5 0
40 9.5 0
41 9.5 0
42 9.5 0
43 9.5 0
44 9.5 0
45 9.5 0
46 9.5 0
47 9.5 0
48 9.5 0
49 9.5 0
50 9.5 0
0.5 10 0
1.5 10 0
2.5 10 0
3.5 10 0
4.5 10 0
5.5 10 0
6.5 10 0
7.5 10 0
8.5 10 0
9.5 10 0
10.5 10 0
11.5 10 0
12.5 10 0
13.5 10 0
14.5 10 0
15.5 10 0
16.5 10 0
17.5 10 0
18.5 10 0
19.5 10 0
20.5 10 0
21.5 10 0
22.5 10 0
23.5 10 0
24.5 10 0
25.5 10 0
26.5 10 0
27.5 10 0
28.5 10 0
29.5 10 0
30.5 10 0
31.5 10 0
32.5 10 0
33.5 10 0
34.5 10 0
35.5 10 0
36.5 10 0
37.5 10 0
38.5 10 0
39.5 10 0
40.5 10 0
41.5 10 0
42.5 10 0
43.5 10 0
44.5 10 0
45.5 10 0
46.5 10 0
47.5 10 0
48.5 10 0
49.5 10 0
0 10.5 0
1 10.5 0
2 10.5 0
3 10.5 0
4 10.5 0
5 10.5 0
6 10.5 0
7 10.5 0
8 10.5 0
9 10.5 0
10 10.5 0
11 10.5 0
12 10.5 0
13 10.5 0
14 10.5 0
15 10.5 0
16 10.5 0
17 10.5 0
18 10.5 0
19 10.5 0
20 10.5 0
21 10.5 0
22 10.5 0
23 10.5 0
24 10.5 0
25 10.5 0
26 10.5 0
27 10.5 0
28 10.5 0
29 10.5 0
30 10.5 0
31 10.5 0
32 10.5 0
33 10.5 0
34 10.5 0
35 10.5 0
36 10.5 0
37 10.5 0
38 10.5 0
39 10.5 0
40 10.5 0
41 10.5 0
42 10.5 0
43 10.5 0
44 10.5 0
45 10.5 0
46 10.5 0
47 10.5 0
48 10.5 0
49 10.5 0
50 10.5 0
[...]
POINT_DATA 5100
VECTORS velocity float
-0.332843 -0.413303 0.847583
-0.185334 -0.47774 0.858729
-0.0467908 -0.589498 0.806414
0.0817389 -0.7163 0.692988
0.193199 -0.828541 0.525541
0.277401 -0.906591 0.318027
0.325572 -0.941226 0.0899785
0.332636 -0.933026 -0.137167
0.298226 -0.89036 -0.343976
0.226711 -0.826084 -0.515933
0.126265 -0.753862 -0.644786
0.00722865 -0.685177 -0.728341
-0.119737 -0.627687 -0.769202
-0.245188 -0.584981 -0.773098
-0.361822 -0.557302 -0.747328
-0.4648 -0.54269 -0.699606
-0.55163 -0.53808 -0.637318
-0.621807 -0.540144 -0.567098
-0.676346 -0.545822 -0.494606
-0.717275 -0.552629 -0.424404
-0.747146 -0.558781 -0.359913
-0.768596 -0.563203 -0.303419
-0.784035 -0.565393 -0.256164
-0.795478 -0.565209 -0.218527
-0.804516 -0.562633 -0.19026
-0.812363 -0.5576 -0.170728
-0.819936 -0.549903 -0.159098
-0.827929 -0.539141 -0.154468
-0.836886 -0.524703 -0.155912
-0.84724 -0.505749 -0.162488
-0.859323 -0.481211 -0.173207
-0.873317 -0.449829 -0.187008
-0.889125 -0.410298 -0.202763
-0.906174 -0.361591 -0.219318
-0.923261 -0.303468 -0.235576
-0.938615 -0.237052 -0.250614
-0.950337 -0.165112 -0.263815
-0.957076 -0.091702 -0.274947
-0.958551 -0.0211432 -0.284137
-0.955534 0.0431822 -0.291701
-0.949378 0.0996644 -0.297907
-0.941378 0.148726 -0.302799
-0.932277 0.192627 -0.306194
-0.921922 0.234947 -0.307993
-0.908994 0.279755 -0.308978
-0.890682 0.33045 -0.31223
-0.862619 0.388843 -0.323557
-0.821785 0.457098 -0.340191
-0.779433 0.549026 -0.301753
-0.73129 0.661053 -0.167998
-0.413303 -0.332843 0.847583
-0.267427 -0.368259 0.890431
-0.105932 -0.453009 0.88519
0.0471619 -0.575568 0.816393
0.182739 -0.701747 0.688591
0.291205 -0.808056 0.512099
0.36449 -0.88103 0.30155
0.396751 -0.914879 0.0747279
0.385224 -0.910732 -0.148893
0.331418 -0.875874 -0.350724
0.241562 -0.821685 -0.516218
0.125581 -0.760477 -0.637106
-0.00501042 -0.702505 -0.711661
-0.13926 -0.654314 -0.74329
-0.268223 -0.618605 -0.738501
-0.38555 -0.595105 -0.705125
-0.487465 -0.581734 -0.651124
-0.572425 -0.57564 -0.583926
-0.640658 -0.573914 -0.510079
-0.693687 -0.574009 -0.435099
-0.733855 -0.573933 -0.363397
-0.763878 -0.572306 -0.298254
-0.786466 -0.568316 -0.241842
-0.804052 -0.561563 -0.195314
-0.818655 -0.551839 -0.15899
-0.831858 -0.538917 -0.132594
-0.844838 -0.522405 -0.115505
-0.858412 -0.501688 -0.106951
-0.873056 -0.475929 -0.106137
-0.888893 -0.444137 -0.112298
-0.905641 -0.405298 -0.124691
-0.922539 -0.358612 -0.142548
-0.938329 -0.303836 -0.164994
-0.951376 -0.24168 -0.190985
-0.96001 -0.174059 -0.219281
-0.963033 -0.103987 -0.248504
-0.960153 -0.035015 -0.277273
-0.952092 0.0295494 -0.304379
-0.940317 0.0872839 -0.328915
-0.926569 0.136926 -0.350315
-0.91243 0.178351 -0.368325
-0.899018 0.212441 -0.38293
-0.886815 0.241 -0.394307
-0.875534 0.26673 -0.40286
-0.863918 0.293236 -0.40946
-0.849266 0.324913 -0.416148
-0.826444 0.366652 -0.427265
-0.78733 0.423534 -0.44803
-0.729144 0.502168 -0.464948
-0.678887 0.609718 -0.409093
-0.661053 0.73129 -0.167998
-0.368259 -0.267427 0.890431
-0.201676 -0.321569 0.925159
-0.0247205 -0.426129 0.904325
0.139726 -0.55376 0.820869
0.277003 -0.675814 0.683041
0.379253 -0.776552 0.503125
0.44171 -0.84751 0.294312
0.46073 -0.884646 0.0716116
0.434688 -0.888416 -0.147523
0.36598 -0.864277 -0.345086
0.261929 -0.82165 -0.506245
0.133542 -0.77121 -0.622416
-0.00703011 -0.72198 -0.691878
-0.148795 -0.679695 -0.718244
-0.283167 -0.646707 -0.708227
-0.404294 -0.622814 -0.669813
-0.508861 -0.606318 -0.611097
-0.595712 -0.594913 -0.539635
-0.665397 -0.586271 -0.462096
-0.719715 -0.578351 -0.384085
-0.761248 -0.56953 -0.310061
-0.792914 -0.558642 -0.243322
-0.817579 -0.544936 -0.186036
-0.837773 -0.527936 -0.139353
-0.855552 -0.507245 -0.1036
-0.872444 -0.482361 -0.0785437
-0.889441 -0.452597 -0.0636456
-0.906995 -0.417092 -0.0582522
-0.924992 -0.374944 -0.0617006
-0.942717 -0.325435 -0.0733277
-0.958874 -0.268373 -0.0923983
-0.971742 -0.204446 -0.117984
-0.979536 -0.135474 -0.148852
-0.980924 -0.0643199 -0.18344
-0.975494 0.0056121 -0.219956
-0.963901 0.0711198 -0.256587
-0.947653 0.129827 -0.291718
-0.928659 0.180439 -0.324091
-0.908798 0.222647 -0.352867
-0.889619 0.25689 -0.377605
-0.872169 0.284149 -0.398223
-0.856892 0.305864 -0.41495
-0.843543 0.324008 -0.428315
-0.831048 0.341272 -0.439195
-0.817174 0.361302 -0.449097
-0.797758 0.388817 -0.460872
-0.765403 0.429309 -0.479429
-0.710772 0.487817 -0.506792
-0.641453 0.567395 -0.516335
-0.609718 0.678887 -0.409093
-0.47774 -0.185334 0.858729
-0.321569 -0.201676 0.925159
-0.137144 -0.276666 0.95113
0.0529822 -0.39523 0.917053
0.222488 -0.524049 0.822114
0.357182 -0.642564 0.677889
0.45234 -0.740681 0.49677
0.505369 -0.812608 0.290294
0.513719 -0.854952 0.071769
0.47649 -0.867557 -0.142482
0.396842 -0.85452 -0.33513
0.282748 -0.823513 -0.491812
0.145472 -0.783447 -0.604193
-0.00295376 -0.741953 -0.670445
-0.151722 -0.704028 -0.693776
-0.29226 -0.671963 -0.680478
-0.418546 -0.646 -0.63836
-0.52708 -0.625145 -0.575657
-0.61665 -0.607845 -0.500267
-0.68795 -0.592428 -0.41923
-0.743072 -0.577331 -0.338427
-0.784962 -0.561205 -0.262456
-0.816885 -0.54297 -0.194635
-0.841975 -0.521809 -0.137086
-0.86294 -0.497064 -0.0908972
-0.881896 -0.468064 -0.0563575
-0.900299 -0.434001 -0.0332454
-0.918909 -0.393906 -0.0210812
-0.937749 -0.346778 -0.0192947
-0.956077 -0.291843 -0.0272755
-0.972432 -0.228939 -0.0443079
-0.984847 -0.158924 -0.0694261
-0.991312 -0.0839324 -0.101267
-0.990402 -0.00722773 -0.138026
-0.981795 0.0674051 -0.177584
-0.966404 0.13651 -0.217781
-0.946067 0.197636 -0.256704
-0.923003 0.249572 -0.292882
-0.899321 0.292187 -0.325344
-0.876722 0.3261 -0.353577
-0.856358 0.35239 -0.377456
-0.838769 0.372438 -0.397186
-0.823833 0.387942 -0.41328
-0.810664 0.401102 -0.426545
-0.797397 0.414924 -0.438174
-0.780669 0.433496 -0.450152
-0.75454 0.461898 -0.466176
-0.709465 0.505006 -0.491557
-0.639042 0.564511 -0.522449
-0.567395 0.641453 -0.516335
-0.549026 0.779433 -0.301753
-0.453009 -0.105932 0.88519
-0.276666 -0.137144 0.95113
-0.076763 -0.232687 0.969517
0.12161 -0.359361 0.925241
0.291394 -0.488375 0.822544
0.421881 -0.605727 0.674619
0.510601 -0.704433 0.493011
0.555826 -0.77973 0.288233
0.555521 -0.828288 0.0730436
0.509533 -0.849526 -0.136681
0.421779 -0.846673 -0.324418
0.300469 -0.826057 -0.47681
0.156453 -0.795015 -0.586066
0.00121378 -0.759876 -0.650066
-0.154544 -0.724993 -0.671194
-0.301774 -0.692725 -0.65503
-0.43372 -0.663894 -0.609206
-0.546315 -0.638306 -0.542314
-0.638192 -0.615203 -0.462857
-0.710278 -0.593548 -0.378425
-0.765136 -0.572195 -0.295228
-0.806231 -0.549987 -0.217957
-0.837274 -0.525847 -0.149858
-0.861716 -0.498814 -0.0929032
-0.882436 -0.467975 -0.0480279
-0.901583 -0.432331 -0.015421
-0.920491 -0.390729 0.00516901
-0.939618 -0.341931 0.014192
-0.958492 -0.28486 0.0121761
-0.975724 -0.219006 -0.000249166
-0.989195 -0.144915 -0.0222055
-0.996538 -0.0645642 -0.0523716
-0.995868 0.0186631 -0.0888702
-0.986487 0.100548 -0.129359
-0.969184 0.176995 -0.171336
-0.945968 0.244902 -0.212526
-0.919434 0.302576 -0.251174
-0.892117 0.349647 -0.286135
-0.866077 0.386701 -0.316818
-0.842719 0.414887 -0.343064
-0.822768 0.435645 -0.365057
-0.806249 0.450622 -0.383279
-0.792445 0.461797 -0.398464
-0.779754 0.471777 -0.411595
-0.765361 0.484133 -0.424072
-0.744506 0.50349 -0.438416
-0.709173 0.534746 -0.459479
-0.648695 0.580424 -0.492243
-0.564511 0.639042 -0.522449
-0.502168 0.729144 -0.464948
-0.589498 -0.0467908 0.806414
-0.426129 -0.0247205 0.904325
-0.232687 -0.076763 0.969517
-0.0203664 -0.187134 0.982123
0.181087 -0.318012 0.930632
0.348384 -0.447831 0.823454
0.47435 -0.566691 0.673686
0.557431 -0.668888 0.491792
0.5959 -0.749661 0.287942
0.58803 -0.805341 0.0751385
0.534486 -0.834999 -0.130769
0.439898 -0.841338 -0.314069
0.312411 -0.829736 -0.462533
0.162175 -0.806269 -0.568885
0.000114908 -0.776154 -0.630544
-0.162866 -0.743185 -0.648962
-0.316827 -0.709829 -0.629098
-0.453995 -0.67751 -0.578679
-0.56971 -0.646862 -0.506952
-0.662618 -0.617918 -0.423219
-0.734123 -0.590252 -0.335659
-0.787445 -0.563084 -0.250732
-0.826676 -0.535393 -0.173093
-0.855994 -0.506048 -0.105785
-0.879132 -0.473893 -0.050521
-0.899079 -0.437714 -0.0080035
-0.917926 -0.396156 0.0217326
-0.936782 -0.347732 0.0390076
-0.955696 -0.291004 0.0442856
-0.973621 -0.224963 0.0381173
-0.988525 -0.149559 0.0212437
-0.997793 -0.066199 -0.00519338
-0.998978 0.0220485 -0.0394526
-0.99068 0.110838 -0.0791743
-0.973138 0.195468 -0.121632
-0.948202 0.271952 -0.164181
-0.918724 0.337721 -0.204674
-0.887754 0.391767 -0.241683
-0.857914 0.434347 -0.274456
-0.831074 0.466522 -0.302775
-0.808287 0.489762 -0.32681
-0.789807 0.505737 -0.347037
-0.775092 0.516348 -0.364166
-0.762729 0.523984 -0.379059
-0.750247 0.531869 -0.39274
-0.733677 0.544268 -0.406805
-0.706558 0.566081 -0.424651
-0.658696 0.601018 -0.452656
-0.580424 0.648695 -0.492243
-0.487817 0.710772 -0.506792
-0.457098 0.821785 -0.340191
-0.575568 0.0471619 0.816393
-0.39523 0.0529822 0.917053
-0.187134 -0.0203664 0.982123
0.0327868 -0.139399 0.989693
0.233356 -0.272441 0.933446
0.396823 -0.40397 0.824221
0.518393 -0.526381 0.673938
0.59642 -0.634187 0.492026
0.628735 -0.722022 0.288749
0.61383 -0.7856 0.0777531
0.553178 -0.823641 -0.12494
0.451978 -0.838507 -0.304338
0.318143 -0.834884 -0.449169
0.161146 -0.817828 -0.55244
-0.00836039 -0.791594 -0.610991
-0.178863 -0.759483 -0.625455
-0.339221 -0.724108 -0.600497
-0.4806 -0.687551 -0.544332
-0.597959 -0.651319 -0.467149
-0.690281 -0.616256 -0.379132
-0.759718 -0.58252 -0.288963
-0.810309 -0.549649 -0.203189
-0.846808 -0.516694 -0.126265
-0.873829 -0.482405 -0.0608956
-0.895308 -0.445367 -0.00844602
-0.914234 -0.404024 0.0306673
-0.932518 -0.35666 0.0565987
-0.950904 -0.301518 0.0697715
-0.968906 -0.23711 0.0707171
-0.98484 -0.162728 0.0600886
-0.996117 -0.079016 0.0388322
-0.999897 0.0116425 0.00842672
-0.994026 0.105227 -0.0289722
-0.977894 0.196804 -0.0706441
-0.952764 0.281626 -0.113702
-0.921396 0.356114 -0.155603
-0.887221 0.418333 -0.194518
-0.853491 0.467895 -0.229409
-0.82273 0.505537 -0.2599
-0.796524 0.532627 -0.286108
-0.775509 0.550823 -0.308511
-0.759396 0.561995 -0.32784
-0.74695 0.56841 -0.344929
-0.735903 0.573068 -0.360611
-0.722747 0.579973 -0.375857
-0.702143 0.593979 -0.392663
-0.665605 0.619647 -0.415942
-0.601018 0.658696 -0.452656
-0.505006 0.709465 -0.491557
-0.423534 0.78733 -0.44803
-0.7163 0.0817389 0.692988
-0.55376 0.139726 0.820869
-0.359361 0.12161 0.925241
-0.139399 0.0327868 0.989693
0.083182 -0.0904416 0.992422
0.280393 -0.224632 0.933231
0.4395 -0.358486 0.823606
0.556894 -0.485652 0.673803
0.630256 -0.600321 0.492333
0.656767 -0.696205 0.28975
0.635093 -0.768233 0.0804666
0.567413 -0.814749 -0.119278
0.459312 -0.837834 -0.295071
0.318401 -0.841578 -0.436311
0.15367 -0.83011 -0.536006
-0.0240828 -0.806787 -0.590351
-0.202311 -0.774472 -0.599385
-0.368461 -0.736021 -0.567899
-0.512752 -0.6943 -0.505007
-0.630106 -0.651794 -0.422056
-0.720219 -0.610188 -0.330084
-0.786248 -0.570196 -0.238099
-0.833146 -0.531604 -0.152527
-0.866322 -0.493445 -0.0774481
-0.890742 -0.454258 -0.0151197
-0.910432 -0.412299 0.0335094
-0.92825 -0.365625 0.0683407
-0.945772 -0.31219 0.0897398
-0.963223 -0.25009 0.0982659
-0.979472 -0.178017 0.0945708
-0.992219 -0.0958381 0.0794806
-0.998516 -0.00509821 0.0542112
-0.995652 0.0908437 0.0205899
-0.982129 0.187255 -0.0188964
-0.958331 0.278992 -0.0613551
-0.926516 0.361602 -0.103981
-0.890158 0.43212 -0.144538
-0.853006 0.489289 -0.181595
-0.818297 0.533279 -0.214487
-0.788316 0.565177 -0.243175
-0.764267 0.586532 -0.268097
-0.746258 0.59916 -0.290011
-0.733287 0.605242 -0.309794
-0.72323 0.607623 -0.328226
-0.712803 0.610119 -0.345929
-0.697336 0.617517 -0.363861
-0.6699 0.634859 -0.384952
-0.619647 0.665605 -0.415942
-0.534746 0.709173 -0.459479
-0.429309 0.765403 -0.479429
-0.388843 0.862619 -0.323557
-0.701747 0.182739 0.688591
-0.524049 0.222488 0.822114
-0.318012 0.181087 0.930632
-0.0904416 0.083182 0.992422
0.131009 -0.041568 0.990509
0.323583 -0.176363 0.929618
0.478228 -0.312809 0.820639
0.591659 -0.445269 0.672067
0.660596 -0.567385 0.491616
0.681509 -0.671817 0.290183
0.653192 -0.752641 0.0828991
0.578385 -0.807785 -0.113811
0.462891 -0.839016 -0.285978
0.314013 -0.849797 -0.423369
0.140528 -0.843299 -0.518747
-0.0461903 -0.821968 -0.567657
-0.232155 -0.788296 -0.569818
-0.403267 -0.745551 -0.530594
-0.54902 -0.697594 -0.460369
-0.664721 -0.648028 -0.37176
-0.751157 -0.599412 -0.276528
-0.812692 -0.552957 -0.183768
-0.85523 -0.508596 -0.0995571
-0.884764 -0.465231 -0.0274456
-0.906498 -0.421082 0.0308521
-0.924407 -0.373991 0.0748457
-0.941054 -0.32162 0.104776
-0.957512 -0.26167 0.121238
-0.97335 -0.192291 0.124954
-0.986757 -0.112626 0.116733
-0.99495 -0.0233673 0.0976124
-0.99494 0.0729447 0.0690863
-0.984517 0.1721 0.0332731
-0.963128 0.268947 -0.00716047
-0.93224 0.358455 -0.0493728
-0.894999 0.436719 -0.0908506
-0.855363 0.501513 -0.129764
-0.817169 0.552256 -0.165068
-0.783463 0.589572 -0.196447
-0.756163 0.614776 -0.224206
-0.735933 0.629567 -0.249095
-0.722116 0.636031 -0.272053
-0.712734 0.636892 -0.293903
-0.704574 0.63583 -0.315112
-0.693276 0.637567 -0.33597
-0.672973 0.647402 -0.35774
-0.634859 0.6699 -0.384952
-0.566081 0.706558 -0.424651
-0.461898 0.75454 -0.466176
-0.366652 0.826444 -0.427265
-0.828541 0.193199 0.525541
-0.675814 0.277003 0.683041
-0.488375 0.291394 0.822544
-0.272441 0.233356 0.933446
-0.041568 0.131009 0.990509
0.176399 0.00622925 0.984299
0.363857 -0.128848 0.9225
0.51415 -0.267908 0.814786
0.623791 -0.405771 0.668008
0.688436 -0.53548 0.489199
0.703855 -0.648644 0.289567
0.668926 -0.738473 0.084827
0.586803 -0.80243 -0.108482
0.463361 -0.841862 -0.276704
0.305639 -0.859484 -0.409723
0.122469 -0.857396 -0.499874
-0.073763 -0.837077 -0.54209
-0.267254 -0.800739 -0.53609
-0.442297 -0.75232 -0.48825
-0.587978 -0.696957 -0.410528
-0.700459 -0.639524 -0.316807
-0.781963 -0.583457 -0.219344
-0.838196 -0.530367 -0.127038
-0.875981 -0.480204 -0.0453978
-0.90178 -0.4316 0.0226952
-0.92088 -0.38234 0.0761382
-0.937029 -0.329797 0.114932
-0.952315 -0.27127 0.139672
-0.967148 -0.204368 0.151188
-0.980368 -0.127544 0.150369
-0.989571 -0.0406555 0.138186
-0.99176 0.0546311 0.115877
-0.984266 0.154816 0.0851667
-0.965719 0.255048 0.0483456
-0.9367 0.350039 0.00806445
-0.899749 0.435151 -0.0330948
-0.858722 0.507212 -0.0730175
-0.817837 0.564785 -0.110274
-0.780827 0.607878 -0.144197
-0.750394 0.637441 -0.174863
-0.727891 0.65497 -0.20295
-0.713129 0.662421 -0.229446
-0.704324 0.662398 -0.255258
-0.698244 0.658476 -0.28083
-0.690555 0.655337 -0.30605
-0.675967 0.658433 -0.330961
-0.647402 0.672973 -0.35774
-0.593979 0.702143 -0.392663
-0.50349 0.744506 -0.438416
-0.388817 0.797758 -0.460872
-0.33045 0.890682 -0.31223
-0.808056 0.291205 0.512099
-0.642564 0.357182 0.677889
-0.447831 0.348384 0.823454
-0.224632 0.280393 0.933231
0.00622925 0.176399 0.984299
0.219538 0.0524017 0.974196
0.401875 -0.082743 0.911949
0.548016 -0.224296 0.805835
0.653987 -0.367429 0.661285
0.714393 -0.504635 0.484754
0.72435 -0.626545 0.287678
0.682777 -0.725525 0.0861866
0.593101 -0.798494 -0.103148
0.461154 -0.846236 -0.266875
0.29376 -0.87054 -0.394796
0.100085 -0.872259 -0.478693
-0.106039 -0.851822 -0.512986
-0.30663 -0.811314 -0.497743
-0.48439 -0.755695 -0.440785
-0.628414 -0.691712 -0.355852
-0.736215 -0.625652 -0.257968
-0.811757 -0.561771 -0.159571
-0.862139 -0.501942 -0.0690606
-0.895003 -0.445972 0.00882943
-0.917112 -0.392074 0.0719951
-0.933646 -0.337499 0.120001
-0.947925 -0.27914 0.15336
-0.961379 -0.214043 0.173018
-0.973658 -0.139946 0.180015
-0.982916 -0.0558606 0.175371
-0.986377 0.0374606 0.160177
-0.981167 0.137345 0.135819
-0.965302 0.239464 0.104157
-0.938524 0.338553 0.0674896
-0.902637 0.429475 0.0282527
-0.861148 0.508228 -0.0113364
-0.818416 0.572485 -0.0495536
-0.778719 0.621536 -0.085375
-0.745523 0.655843 -0.118597
-0.720951 0.676608 -0.14977
-0.7054 0.685597 -0.179909
-0.697342 0.685275 -0.210028
-0.693472 0.679114 -0.240626
-0.689254 0.671784 -0.271358
-0.679543 0.668867 -0.301394
-0.658433 0.675967 -0.330961
-0.617517 0.697336 -0.363861
-0.544268 0.733677 -0.406805
-0.433496 0.780669 -0.450152
-0.324913 0.849266 -0.416148
-0.906591 0.277401 0.318027
-0.776552 0.379253 0.503125
-0.605727 0.421881 0.674619
-0.40397 0.396823 0.824221
-0.176363 0.323583 0.929618
0.0524017 0.219538 0.974196
0.260675 0.0967606 0.960566
0.438128 -0.0382937 0.898097
0.580328 -0.182142 0.793753
0.682699 -0.330286 0.651792
0.738869 -0.474784 0.478178
0.743353 -0.605395 0.28447
0.695069 -0.713656 0.087032
0.597575 -0.79585 -0.0976066
0.456566 -0.852028 -0.256117
0.278708 -0.882831 -0.378064
0.0737813 -0.887631 -0.454606
-0.142464 -0.865732 -0.479804
-0.349514 -0.819326 -0.454473
-0.528592 -0.754862 -0.388296
-0.669334 -0.681066 -0.296885
-0.771122 -0.605723 -0.196137
-0.839886 -0.53379 -0.0982871
-0.884081 -0.467206 -0.0109288
-0.911997 -0.40546 0.0621544
-0.930487 -0.346208 0.119724
-0.944394 -0.286111 0.162051
-0.956407 -0.221642 0.190157
-0.967174 -0.149771 0.205287
-0.975589 -0.0685945 0.208618
-0.979297 0.0221226 0.201217
-0.975451 0.12065 0.184223
-0.961666 0.223359 0.159091
-0.936971 0.325244 0.12768
-0.902419 0.420897 0.0921113
-0.861027 0.505629 0.0545148
-0.817096 0.576258 0.0167666
-0.775291 0.631294 -0.0198154
-0.739777 0.67062 -0.0547496
-0.713492 0.695059 -0.0884434
-0.697509 0.706124 -0.121938
-0.690634 0.706092 -0.156394
-0.689446 0.698309 -0.19243
-0.688998 0.687443 -0.229573
-0.683903 0.679222 -0.266334
-0.668867 0.679543 -0.301394
-0.637567 0.693276 -0.33597
-0.579973 0.722747 -0.375857
-0.484133 0.765361 -0.424072
-0.361302 0.817174 -0.449097
-0.279755 0.908994 -0.308978
-0.88103 0.36449 0.30155
-0.740681 0.45234 0.49677
-0.566691 0.47435 0.673686
-0.358486 0.4395 0.823606
-0.128848 0.363857 0.9225
0.0967606 0.260675 0.960566
0.300084 0.139352 0.943679
0.472979 0.00452416 0.881062
0.611418 -0.141381 0.778575
0.710219 -0.294235 0.639543
0.762129 -0.445793 0.469497
0.761119 -0.58506 0.280004
0.706034 -0.702753 0.0874906
0.600435 -0.794408 -0.0916236
0.449785 -0.859144 -0.244061
0.260655 -0.896187 -0.359038
0.0437634 -0.903157 -0.427073
-0.18269 -0.878172 -0.442084
-0.395314 -0.823899 -0.4061
-0.574114 -0.748872 -0.331034
-0.709921 -0.664164 -0.234305
-0.804491 -0.579049 -0.132275
-0.865845 -0.498977 -0.0365354
-0.903662 -0.425725 0.0464101
-0.926639 -0.358292 0.113872
-0.941461 -0.29368 0.165538
-0.952403 -0.227964 0.202388
-0.961366 -0.157316 0.225893
-0.968188 -0.0788182 0.237486
-0.97114 0.00888804 0.238344
-0.967614 0.105171 0.229482
-0.955029 0.207294 0.21201
-0.931856 0.310729 0.187329
-0.898445 0.410008 0.157134
-0.857258 0.499905 0.123301
-0.812417 0.576443 0.0877096
-0.768843 0.63733 0.051877
-0.731337 0.681816 0.0165234
-0.703671 0.710281 -0.0186382
-0.687694 0.723936 -0.0547162
-0.682627 0.724813 -0.0930949
-0.684916 0.716078 -0.13462
-0.688991 0.702371 -0.178792
-0.688829 0.689588 -0.223567
-0.679222 0.683903 -0.266334
-0.655337 0.690555 -0.30605
-0.610119 0.712803 -0.345929
-0.531869 0.750247 -0.39274
-0.414924 0.797397 -0.438174
-0.293236 0.863918 -0.40946
-0.941226 0.325572 0.0899785
-0.84751 0.44171 0.294312
-0.704433 0.510601 0.493011
-0.526381 0.518393 0.673938
-0.312809 0.478228 0.820639
-0.082743 0.401875 0.911949
0.139352 0.300084 0.943679
0.338035 0.180348 0.923692
0.506686 0.0458815 0.860909
0.641489 -0.101825 0.760344
0.73672 -0.25908 0.624597
0.784349 -0.417492 0.458799
0.777825 -0.565414 0.2744
0.715838 -0.692733 0.0877371
0.601811 -0.79411 -0.0849339
0.440883 -0.867509 -0.230328
0.239609 -0.910417 -0.337236
0.0100435 -0.918381 -0.395571
-0.226533 -0.888338 -0.399423
-0.443554 -0.823991 -0.35256
-0.62026 -0.736681 -0.269404
-0.749461 -0.640137 -0.168916
-0.835733 -0.544988 -0.0673702
-0.889185 -0.456878 0.0247383
-0.920478 -0.377181 0.102248
-0.93842 -0.304275 0.163659
-0.949262 -0.23446 0.209594
-0.95652 -0.163285 0.241676
-0.961247 -0.0867445 0.261686
-0.962558 -0.00217633 0.271068
-0.958298 0.0911108 0.270857
-0.945895 0.191522 0.261919