# vtk DataFile Version 2.0
tmp/0.000.00-10.000.000.001.0082.vtk
ASCII
DATASET UNSTRUCTURED_GRID
POINTS 5100 float
0.5 0 0
1.5 0 0
2.5 0 0
3.5 0 0
4.5 0 0
5.5 0 0
6.5 0 0
7.5 0 0
8.5 0 0
9.5 0 0
10.5 0 0
11.5 0 0
12.5 0 0
13.5 0 0
14.5 0 0
15.5 0 0
16.5 0 0
17.5 0 0
18.5 0 0
19.5 0 0
20.5 0 0
21.5 0 0
22.5 0 0
23.5 0 0
24.5 0 0
25.5 0 0
26.5 0 0
27.5 0 0
28.5 0 0
29.5 0 0
30.5 0 0
31.5 0 0
32.5 0 0
33.5 0 0
34.5 0 0
35.5 0 0
36.5 0 0
37.5 0 0
38.5 0 0
39.5 0 0
40.5 0 0
41.5 0 0
42.5 0 0
43.5 0 0
44.5 0 0
45.5 0 0
46.5 0 0
47.5 0 0
48.5 0 0
49.5 0 0
0 0.5 0
1 0.5 0
2 0.5 0
3 0.5 0
4 0.5 0
5 0.5 0
6 0.5 0
7 0.5 0
8 0.5 0
9 0.5 0
10 0.5 0
11 0.5 0
12 0.5 0
13 0.5 0
14 0.5 0
15 0.5 0
16 0.5 0
17 0.5 0
18 0.5 0
19 0.5 0
20 0.5 0
21 0.5 0
22 0.5 0
23 0.5 0
24 0.5 0
25 0.5 0
26 0.5 0
27 0.5 0
28 0.5 0
29 0.5 0
30 0.5 0
31 0.5 0
32 0.5 0
33 0.5 0
34 0.5 0
35 0.5 0
36 0.5 0
37 0.5 0
38 0.5 0
39 0.5 0
40 0.5 0
41 0.5 0
42 0.5 0
43 0.5 0
44 0.5 0
45 0.5 0
46 0.5 0
47 0.5 0
48 0.5 0
49 0.5 0
50 0.5 0
0.5 1 0
1.5 1 0
2.5 1 0
3.5 1 0
4.5 1 0
5.5 1 0
6.5 1 0
7.5 1 0
8.5 1 0
9.5 1 0
10.5 1 0
11.5 1 0
12.5 1 0
13.5 1 0
14.5 1 0
15.5 1 0
16.5 1 0
17.5 1 0
18.5 1 0
19.5 1 0
20.5 1 0
21.5 1 0
22.5 1 0
23.5 1 0
24.5 1 0
25.5 1 0
26.5 1 0
27.5 1 0
28.5 1 0
29.5 1 0
30.5 1 0
31.5 1 0
32.5 1 0
33.5 1 0
34.5 1 0
35.5 1 0
36.5 1 0
37.5 1 0
38.5 1 0
39.5 1 0
40.5 1 0
41.5 1 0
42.5 1 0
43.5 1 0
44.5 1 0
45.5 1 0
46.5 1 0
47.5 1 0
48.5 1 0
49.5 1 0
0 1.5 0
1 1.5 0
2 1.5 0
3 1.5 0
4 1.5 0
5 1.5 0
6 1.5 0
7 1.5 0
8 1.5 0
9 1.5 0
10 1.5 0
11 1.5 0
12 1.5 0
13 1.5 0
14 1.5 0
15 1.5 0
16 1.5 0
17 1.5 0
18 1.5 0
19 1.5 0
20 1.5 0
21 1.5 0
22 1.5 0
23 1.5 0
24 1.5 0
25 1.5 0
26 1.5 0
27 1.5 0
28 1.5 0
29 1.5 0
30 1.5 0
31 1.5 0
32 1.5 0
33 1.5 0
34 1.5 0
35 1.5 0
36 1.5 0
37 1.5 0
38 1.5 0
39 1.5 0
40 1.5 0
41 1.5 0
42 1.5 0
43 1.5 0
44 1.5 0
45 1.5 0
46 1.5 0
47 1.5 0
48 1.5 0
49 1.5 0
50 1.5 0
0.5 2 0
1.5 2 0
2.5 2 0
3.5 2 0
4.5 2 0
5.5 2 0
6.5 2 0
7.5 2 0
8.5 2 0
9.5 2 0
10.5 2 0
11.5 2 0
12.5 2 0
13.5 2 0
14.5 2 0
15.5 2 0
16.5 2 0
17.5 2 0
18.5 2 0
19.5 2 0
20.5 2 0
21.5 2 0
22.5 2 0
23.5 2 0
24.5 2 0
25.5 2 0
26.5 2 0
27.5 2 0
28.5 2 0
29.5 2 0
30.5 2 0
31.5 2 0
32.5 2 0
33.5 2 0
34.5 2 0
35.5 2 0
36.5 2 0
37.5 2 0
38.5 2 0
39.5 2 0
40.5 2 0
41.5 2 0
42.5 2 0
43.5 2 0
44.5 2 0
45.5 2 0
46.5 2 0
47.5 2 0
48.5 2 0
49.5 2 0
0 2.5 0
1 2.5 0
2 2.5 0
3 2.5 0
4 2.5 0
5 2.5 0
6 2.5 0
7 2.5 0
8 2.5 0
9 2.5 0
10 2.5 0
11 2.5 0
12 2.5 0
13 2.5 0
14 2.5 0
15 2.5 0
16 2.5 0
17 2.5 0
18 2.5 0
19 2.5 0
20 2.5 0
21 2.5 0
22 2.5 0
23 2.5 0
24 2.5 0
25 2.5 0
26 2.5 0
27 2.5 0
28 2.5 0
29 2.5 0
30 2.5 0
31 2.5 0
32 2.5 0
33 2.5 0
34 2.5 0
35 2.5 0
36 2.5 0
37 2.5 0
38 2.5 0
39 2.5 0
40 2.5 0
41 2.5 0
42 2.5 0
43 2.5 0
44 2.5 0
45 2.5 0
46 2.5 0
47 2.5 0
48 2.5 0
49 2.5 0
50 2.5 0
0.5 3 0
1.5 3 0
2.5 3 0
3.5 3 0
4.5 3 0
5.5 3 0
6.5 3 0
7.5 3 0
8.5 3 0
9.5 3 0
10.5 3 0
11.5 3 0
12.5 3 0
13.5 3 0
14.5 3 0
15.5 3 0
16.5 3 0
17.5 3 0
18.5 3 0
19.5 3 0
20.5 3 0
21.5 3 0
22.5 3 0
23.5 3 0
24.5 3 0
25.5 3 0
26.5 3 0
27.5 3 0
28.5 3 0
29.5 3 0
30.5 3 0
31.5 3 0
32.5 3 0
33.5 3 0
34.5 3 0
35.5 3 0
36.5 3 0
37.5 3 0
38.5 3 0
39.5 3 0
40.5 3 0
41.5 3 0
42.5 3 0
43.5 3 0
44.5 3 0
45.5 3 0
46.5 3 0
47.5 3 0
48.5 3 0
49.5 3 0
0 3.5 0
1 3.5 0
2 3.5 0
3 3.5 0
4 3.5 0
5 3.5 0
6 3.5 0
7 3.5 0
8 3.5 0
9 3.5 0
10 3.5 0
11 3.5 0
12 3.5 0
13 3.5 0
14 3.5 0
15 3.5 0
16 3.5 0
17 3.5 0
18 3.5 0
19 3.5 0
20 3.5 0
21 3.5 0
22 3.5 0
23 3.5 0
24 3.5 0
25 3.5 0
26 3.5 0
27 3.5 0
28 3.5 0
29 3.5 0
30 3.5 0
31 3.5 0
32 3.5 0
33 3.5 0
34 3.5 0
35 3.5 0
36 3.5 0
37 3.5 0
38 3.5 0
39 3.5 0
40 3.5 0
41 3.5 0
42 3.5 0
43 3.5 0
44 3.5 0
45 3.5 0
46 3.5 0
47 3.5 0
48 3.5 0
49 3.5 0
50 3.5 0
0.5 4 0
1.5 4 0
2.5 4 0
3.5 4 0
4.5 4 0
5.5 4 0
6.5 4 0
7.5 4 0
8.5 4 0
9.5 4 0
10.5 4 0
11.5 4 0
12.5 4 0
13.5 4 0
14.5 4 0
15.5 4 0
16.5 4 0
17.5 4 0
18.5 4 0
19.5 4 0
20.5 4 0
21.5 4 0
22.5 4 0
23.5 4 0
24.5 4 0
25.5 4 0
26.5 4 0
27.5 4 0
28.5 4 0
29.5 4 0
30.5 4 0
31.5 4 0
32.5 4 0
33.5 4 0
34.5 4 0
35.5 4 0
36.5 4 0
37.5 4 0
38.5 4 0
39.5 4 0
40.5 4 0
41.5 4 0
42.5 4 0
43.5 4 0
44.5 4 0
45.5 4 0
46.5 4 0
47.5 4 0
48.5 4 0
49.5 4 0
0 4.5 0
1 4.5 0
2 4.5 0
3 4.5 0
4 4.5 0
5 4.5 0
6 4.5 0
7 4.5 0
8 4.5 0
9 4.5 0
10 4.5 0
11 4.5 0
12 4.5 0
13 4.5 0
14 4.5 0
15 4.5 0
16 4.5 0
17 4.5 0
18 4.5 0
19 4.5 0
20 4.5 0
21 4.5 0
22 4.5 0
23 4.5 0
24 4.5 0
25 4.5 0
26 4.5 0
27 4.5 0
28 4.5 0
29 4.5 0
30 4.5 0
31 4.5 0
32 4.5 0
33 4.5 0
34 4.5 0
35 4.5 0
36 4.5 0
37 4.5 0
38 4.5 0
39 4.5 0
40 4.5 0
41 4.5 0
42 4.5 0
43 4.5 0
44 4.5 0
45 4.5 0
46 4.5 0
47 4.5 0
48 4.5 0
49 4.5 0
50 4.5 0
0.5 5 0
1.5 5 0
2.5 5 0
3.5 5 0
4.5 5 0
5.5 5 0
6.5 5 0
7.5 5 0
8.5 5 0
9.5 5 0
10.5 5 0
11.5 5 0
12.5 5 0
13.5 5 0
14.5 5 0
15.5 5 0
16.5 5 0
17.5 5 0
18.5 5 0
19.5 5 0
20.5 5 0
21.5 5 0
22.5 5 0
23.5 5 0
24.5 5 0
25.5 5 0
26.5 5 0
27.5 5 0
28.5 5 0
29.5 5 0
30.5 5 0
31.5 5 0
32.5 5 0
33.5 5 0
34.5 5 0
35.5 5 0
36.5 5 0
37.5 5 0
38.5 5 0
39.5 5 0
40.5 5 0
41.5 5 0
42.5 5 0
43.5 5 0
44.5 5 0
45.5 5 0
46.5 5 0
47.5 5 0
48.5 5 0
49.5 5 0
0 5.5 0
1 5.5 0
2 5.5 0
3 5.5 0
4 5.5 0
5 5.5 0
6 5.5 0
7 5.5 0
8 5.5 0
9 5.5 0
10 5.5 0
11 5.5 0
12 5.5 0
13 5.5 0
14 5.5 0
15 5.5 0
16 5.5 0
17 5.5 0
18 5.5 0
19 5.5 0
20 5.5 0
21 5.5 0
22 5.5 0
23 5.5 0
24 5.5 0
25 5.5 0
26 5.5 0
27 5.5 0
28 5.5 0
29 5.5 0
30 5.5 0
31 5.5 0
32 5.5 0
33 5.5 0
34 5.5 0
35 5.5 0
36 5.5 0
37 5.5 0
38 5.5 0
39 5.5 0
40 5.5 0
41 5.5 0
42 5.5 0
43 5.5 0
44 5.5 0
45 5.5 0
46 5.5 0
47 5.5 0
48 5.5 0
49 5.5 0
50 5.5 0
0.5 6 0
1.5 6 0
2.5 6 0
3.5 6 0
4.5 6 0
5.5 6 0
6.5 6 0
7.5 6 0
8.5 6 0
9.5 6 0
10.5 6 0
11.5 6 0
12.5 6 0
13.5 6 0
14.5 6 0
15.5 6 0
16.5 6 0
17.5 6 0
18.5 6 0
19.5 6 0
20.5 6 0
21.5 6 0
22.5 6 0
23.5 6 0
24.5 6 0
25.5 6 0
26.5 6 0
27.5 6 0
28.5 6 0
29.5 6 0
30.5 6 0
31.5 6 0
32.5 6 0
33.5 6 0
34.5 6 0
35.5 6 0
36.5 6 0
37.5 6 0
38.5 6 0
39.5 6 0
40.5 6 0
41.5 6 0
42.5 6 0
43.5 6 0
44.5 6 0
45.5 6 0
46.5 6 0
47.5 6 0
48.5 6 0
49.5 6 0
0 6.5 0
1 6.5 0
2 6.5 0
3 6.5 0
4 6.5 0
5 6.5 0
6 6.5 0
7 6.5 0
8 6.5 0
9 6.5 0
10 6.5 0
11 6.5 0
12 6.5 0
13 6.5 0
14 6.5 0
15 6.5 0
16 6.5 0
17 6.5 0
18 6.5 0
19 6.5 0
20 6.5 0
21 6.5 0
22 6.5 0
23 6.5 0
24 6.5 0
25 6.5 0
26 6.5 0
27 6.5 0
28 6.5 0
29 6.5 0
30 6.5 0
31 6.5 0
32 6.5 0
33 6.5 0
34 6.5 0
35 6.5 0
36 6.5 0
37 6.5 0
38 6.5 0
39 6.5 0
40 6.5 0
41 6.5 0
42 6.5 0
43 6.5 0
44 6.5 0
45 6.5 0
46 6.5 0
47 6.5 0
48 6.5 0
49 6.5 0
50 6.5 0
0.5 7 0
1.5 7 0
2.5 7 0
3.5 7 0
4.5 7 0
5.5 7 0
6.5 7 0
7.5 7 0
8.5 7 0
9.5 7 0
10.5 7 0
11.5 7 0
12.5 7 0
13.5 7 0
14.5 7 0
15.5 7 0
16.5 7 0
17.5 7 0
18.5 7 0
19.5 7 0
20.5 7 0
21.5 7 0
22.5 7 0
23.5 7 0
24.5 7 0
25.5 7 0
26.5 7 0
27.5 7 0
28.5 7 0
29.5 7 0
30.5 7 0
31.5 7 0
32.5 7 0
33.5 7 0
34.5 7 0
35.5 7 0
36.5 7 0
37.5 7 0
38.5 7 0
39.5 7 0
40.5 7 0
41.5 7 0
42.5 7 0
43.5 7 0
44.5 7 0
45.5 7 0
46.5 7 0
47.5 7 0
48.5 7 0
49.5 7 0
0 7.5 0
1 7.5 0
2 7.5 0
3 7.5 0
4 7.5 0
5 7.5 0
6 7.5 0
7 7.5 0
8 7.5 0
9 7.5 0
10 7.5 0
11 7.5 0
12 7.5 0
13 7.5 0
14 7.5 0
15 7.5 0
16 7.5 0
17 7.5 0
18 7.5 0
19 7.5 0
20 7.5 0
21 7.5 0
22 7.5 0
23 7.5 0
24 7.5 0
25 7.5 0
26 7.5 0
27 7.5 0
28 7.5 0
29 7.5 0
30 7.5 0
31 7.5 0
32 7.5 0
33 7.5 0
34 7.5 0
35 7.5 0
36 7.5 0
37 7.5 0
38 7.5 0
39 7.5 0
40 7.5 0
41 7.5 0
42 7.5 0
43 7.5 0
44 7.5 0
45 7.5 0
46 7.5 0
47 7.5 0
48 7.5 0
49 7.5 0
50 7.5 0
0.5 8 0
1.5 8 0
2.5 8 0
3.5 8 0
4.5 8 0
5.5 8 0
6.5 8 0
7.5 8 0
8.5 8 0
9.5 8 0
10.5 8 0
11.5 8 0
12.5 8 0
13.5 8 0
14.5 8 0
15.5 8 0
16.5 8 0
17.5 8 0
18.5 8 0
19.5 8 0
20.5 8 0
21.5 8 0
22.5 8 0
23.5 8 0
24.5 8 0
25.5 8 0
26.5 8 0
27.5 8 0
28.5 8 0
29.5 8 0
30.5 8 0
31.5 8 0
32.5 8 0
33.5 8 0
34.5 8 0
35.5 8 0
36.5 8 0
37.5 8 0
38.5 8 0
39.5 8 0
40.5 8 0
41.5 8 0
42.5 8 0
43.5 8 0
44.5 8 0
45.5 8 0
46.5 8 0
47.5 8 0
48.5 8 0
49.5 8 0
0 8.5 0
1 8.5 0
2 8.5 0
3 8.5 0
4 8.5 0
5 8.5 0
6 8.5 0
7 8.5 0
8 8.5 0
9 8.5 0
10 8.5 0
11 8.5 0
12 8.5 0
13 8.5 0
14 8.5 0
15 8.5 0
16 8.5 0
17 8.5 0
18 8.5 0
19 8.5 0
20 8.5 0
21 8.5 0
22 8.5 0
23 8.5 0
24 8.5 0
25 8.5 0
26 8.5 0
27 8.5 0
28 8.5 0
29 8.5 0
30 8.5 0
31 8.5 0
32 8.5 0
33 8.5 0
34 8.5 0
35 8.5 0
36 8.5 0
37 8.5 0
38 8.5 0
39 8.5 0
40 8.5 0
41 8.5 0
42 8.5 0
43 8.5 0
44 8.5 0
45 8.5 0
46 8.5 0
47 8.5 0
48 8.5 0
49 8.5 0
50 8.5 0
0.5 9 0
1.5 9 0
2.5 9 0
3.5 9 0
4.5 9 0
5.5 9 0
6.5 9 0
7.5 9 0
8.5 9 0
9.5 9 0
10.5 9 0
11.5 9 0
12.5 9 0
13.5 9 0
14.5 9 0
15.5 9 0
16.5 9 0
17.5 9 0
18.5 9 0
19.5 9 0
20.5 9 0
21.5 9 0
22.5 9 0
23.5 9 0
24.5 9 0
25.5 9 0
26.5 9 0
27.5 9 0
28.5 9 0
29.5 9 0
30.5 9 0
31.5 9 0
32.5 9 0
33.5 9 0
34.5 9 0
35.5 9 0
36.5 9 0
37.5 9 0
38.5 9 0
39.5 9 0
40.5 9 0
41.5 9 0
42.5 9 0
43.5 9 0
44.5 9 0
45.5 9 0
46.5 9 0
47.5 9 0
48.5 9 0
49.5 9 0
0 9.5 0
1 9.5 0
2 9.5 0
3 9.5 0
4 9.5 0
5 9.5 0
6 9.5 0
7 9.5 0
8 9.5 0
9 9.5 0
10 9.5 0
11 9.5 0
12 9.5 0
13 9.5 0
14 9.5 0
15 9.5 0
16 9.5 0
17 9.5 0
18 9.5 0
19 9.5 0
20 9.5 0
21 9.5 0
22 9.5 0
23 9.5 0
24 9.5 0
25 9.5 0
26 9.5 0
27 9.5 0
28 9.5 0
29 9.5 0
30 9.5 0
31 9.5 0
32 9.5 0
33 9.5 0
34 9.5 0
35 9.5 0
36 9.5 0
37 9.5 0
38 9.5 0
39 9.5 0
40 9.5 0
41 9.5 0
42 9.5 0
43 9.5 0
44 9.5 0
45 9.5 0
46 9.5 0
47 9.5 0
48 9.5 0
49 9.5 0
50 9.5 0
0.5 10 0
1.5 10 0
2.5 10 0
3.5 10 0
4.5 10 0
5.5 10 0
6.5 10 0
7.5 10 0
8.5 10 0
9.5 10 0
10.5 10 0
11.5 10 0
12.5 10 0
13.5 10 0
14.5 10 0
15.5 10 0
16.5 10 0
17.5 10 0
18.5 10 0
19.5 10 0
20.5 10 0
21.5 10 0
22.5 10 0
23.5 10 0
24.5 10 0
25.5 10 0
26.5 10 0
27.5 10 0
28.5 10 0
29.5 10 0
30.5 10 0
31.5 10 0
32.5 10 0
33.5 10 0
34.5 10 0
35.5 10 0
36.5 10 0
37.5 10 0
38.5 10 0
39.5 10 0
40.5 10 0
41.5 10 0
42.5 10 0
43.5 10 0
44.5 10 0
45.5 10 0
46.5 10 0
47.5 10 0
48.5 10 0
49.5 10 0
0 10.5 0
1 10.5 0
2 10.5 0
3 10.5 0
4 10.5 0
5 10.5 0
6 10.5 0
7 10.5 0
8 10.5 0
9 10.5 0
10 10.5 0
11 10.5 0
12 10.5 0
13 10.5 0
14 10.5 0
15 10.5 0
16 10.5 0
17 10.5 0
18 10.5 0
19 10.5 0
20 10.5 0
21 10.5 0
22 10.5 0
23 10.5 0
24 10.5 0
25 10.5 0
26 10.5 0
27 10.5 0
28 10.5 0
29 10.5 0
30 10.5 0
31 10.5 0
32 10.5 0
33 10.5 0
34 10.5 0
35 10.5 0
36 10.5 0
37 10.5 0
38 10.5 0
39 10.5 0
40 10.5 0
41 10.5 0
42 10.5 0
43 10.5 0
44 10.5 0
45 10.5 0
46 10.5 0
47 10.5 0
48 10.5 0
49 10.5 0
50 10.5 0
[...]
POINT_DATA 5100
VECTORS velocity float
0.562222 0.503501 0.656043
0.49531 0.3731 0.784516
0.448672 0.261805 0.854489
0.457595 0.133664 0.879057
0.498578 -0.0299298 0.866328
0.541674 -0.217641 0.811925
0.56473 -0.403846 0.719714
0.560025 -0.566878 0.60417
0.530767 -0.697676 0.48118
0.483828 -0.796929 0.361682
0.425294 -0.869449 0.251362
0.35914 -0.920723 0.152606
0.287314 -0.955543 0.0662446
0.21027 -0.977616 -0.00733049
0.12768 -0.989515 -0.0675174
0.0392427 -0.992794 -0.113224
-0.0545385 -0.988223 -0.142971
-0.151842 -0.976119 -0.155358
-0.249533 -0.956719 -0.149736
-0.343743 -0.930466 -0.126785
-0.430792 -0.898085 -0.0886642
-0.50802 -0.860475 -0.0386984
-0.574185 -0.818499 0.0192406
-0.629388 -0.772823 0.0813348
-0.67471 -0.723856 0.144221
-0.711772 -0.671784 0.205152
-0.742366 -0.616646 0.261993
-0.76819 -0.558422 0.313128
-0.790684 -0.497108 0.357354
-0.810936 -0.432786 0.393801
-0.829638 -0.365676 0.421879
-0.84709 -0.296172 0.441272
-0.863238 -0.224865 0.451947
-0.877753 -0.152544 0.45418
-0.890151 -0.0801626 0.44856
-0.899918 -0.00878496 0.43597
-0.90665 0.0605003 0.417524
-0.910136 0.126674 0.39447
-0.910413 0.188883 0.368065
-0.907745 0.246527 0.339446
-0.902561 0.299317 0.309505
-0.895348 0.347323 0.278781
-0.88653 0.390983 0.24738
-0.876336 0.4311 0.214915
-0.864666 0.468814 0.180461
-0.850958 0.505535 0.142495
-0.834019 0.542829 0.0987368
-0.811764 0.582202 0.0456164
-0.780484 0.624735 -0.0234586
-0.731978 0.670479 -0.121107
0.503501 0.562222 0.656043
0.434786 0.389534 0.811926
0.430676 0.26509 0.862696
0.476737 0.133092 0.868912
0.549022 -0.0266285 0.835384
0.615799 -0.209181 0.759628
0.65277 -0.392616 0.647876
0.65164 -0.55563 0.516372
0.617088 -0.687897 0.382101
0.558512 -0.788804 0.256619
0.484769 -0.862371 0.145994
0.402631 -0.913838 0.0528067
0.316815 -0.948225 -0.0222946
0.230311 -0.969843 -0.079755
0.14469 -0.982097 -0.120623
0.0604315 -0.98741 -0.146181
-0.0226718 -0.987233 -0.157661
-0.105049 -0.982144 -0.156071
-0.186891 -0.972034 -0.142204
-0.267805 -0.956365 -0.116814
-0.34671 -0.934478 -0.0808864
-0.422 -0.905886 -0.035872
-0.491946 -0.870475 0.0162287
-0.55514 -0.828548 0.0729883
-0.610819 -0.780721 0.131814
-0.658952 -0.727734 0.190224
-0.700117 -0.670294 0.246053
-0.735278 -0.608969 0.297529
-0.765523 -0.544184 0.343276
-0.791862 -0.476263 0.382268
-0.815074 -0.405511 0.413781
-0.835636 -0.332299 0.437366
-0.853703 -0.257138 0.452848
-0.869154 -0.180723 0.460337
-0.88169 -0.103939 0.460238
-0.890955 -0.0278359 0.453238
-0.896667 0.0464521 0.440261
-0.898725 0.117798 0.422395
-0.897262 0.185193 0.40078
-0.89265 0.247851 0.376493
-0.885439 0.305286 0.350426
-0.876266 0.357369 0.323181
-0.865728 0.404354 0.294979
-0.854261 0.446875 0.265596
-0.84201 0.485922 0.234307
-0.828703 0.522796 0.199839
-0.813509 0.559033 0.160265
-0.794808 0.596307 0.112687
-0.76964 0.636337 0.0522436
-0.731865 0.680814 -0.029428
-0.670479 0.731978 -0.121107
0.389534 0.434786 0.811926
0.381594 0.314998 0.869001
0.444479 0.192092 0.874951
0.538412 0.0441512 0.841524
0.630723 -0.128458 0.765302
0.693119 -0.309208 0.651134
0.712517 -0.477386 0.51422
0.690893 -0.61983 0.372125
0.637522 -0.732783 0.237896
0.562555 -0.818139 0.11908
0.474589 -0.879992 0.0194533
0.380367 -0.922923 -0.0594527
0.284956 -0.951301 -0.117584
0.191876 -0.968944 -0.155982
0.103183 -0.978885 -0.17646
0.0196285 -0.983245 -0.181228
-0.0590532 -0.983232 -0.172534
-0.133752 -0.979227 -0.152395
-0.205548 -0.970952 -0.122483
-0.275305 -0.957665 -0.0841731
-0.343378 -0.938399 -0.0387175
-0.409509 -0.91222 0.0125468
-0.472925 -0.878472 0.0680379
-0.532604 -0.836949 0.125897
-0.587605 -0.787928 0.184093
-0.637319 -0.732075 0.240603
-0.681577 -0.670265 0.293595
-0.720593 -0.603401 0.341546
-0.754812 -0.532308 0.383284
-0.78473 -0.457702 0.417979
-0.810736 -0.380232 0.445119
-0.83302 -0.300559 0.464481
-0.85156 -0.219434 0.476124
-0.866174 -0.137754 0.480381
-0.876622 -0.0565709 0.477843
-0.88273 0.0229461 0.469321
-0.884504 0.0995923 0.455779
-0.882196 0.172237 0.438251
-0.876314 0.239935 0.417738
-0.867568 0.302033 0.395097
-0.856782 0.35823 0.37094
-0.844763 0.408625 0.345546
-0.832177 0.453713 0.318789
-0.819419 0.494373 0.290082
-0.806488 0.531829 0.258332
-0.79285 0.567593 0.221871
-0.777234 0.603428 0.178273
-0.757175 0.641359 0.123874
-0.727861 0.683632 0.0535233
-0.680814 0.731865 -0.029428
0.3731 0.49531 0.784516
0.314998 0.381594 0.869001
0.373578 0.284173 0.882998
0.476665 0.155703 0.865186
0.591948 -0.00325494 0.80597
0.686376 -0.181101 0.704337
0.738323 -0.357466 0.571924
0.7434 -0.515054 0.426704
0.708726 -0.645708 0.284199
0.644887 -0.748543 0.154284
0.561752 -0.82622 0.0423638
0.467504 -0.882641 -0.0488367
0.368728 -0.921978 -0.118306
0.270506 -0.948233 -0.166377
0.176375 -0.964916 -0.194495
0.0883133 -0.974795 -0.204879
0.00687867 -0.97975 -0.200108
-0.0684928 -0.980777 -0.182714
-0.139075 -0.978091 -0.154904
-0.2064 -0.971273 -0.118442
-0.271826 -0.959442 -0.0747109
-0.336208 -0.941459 -0.0248915
-0.399715 -0.916155 0.0298022
-0.461849 -0.88259 0.0879268
-0.521648 -0.840272 0.147735
-0.578009 -0.789273 0.207251
-0.629988 -0.730192 0.264453
-0.676993 -0.66399 0.317486
-0.718808 -0.591793 0.364823
-0.755487 -0.514722 0.405341
-0.78719 -0.433819 0.43833
-0.81404 -0.35006 0.463461
-0.836043 -0.264412 0.480748
-0.853084 -0.177908 0.490506
-0.865011 -0.0916877 0.493305
-0.871739 -0.00700037 0.489921
-0.873371 0.0748564 0.481268
-0.870274 0.152633 0.468323
-0.863095 0.225246 0.452031
-0.852713 0.291894 0.433219
-0.840143 0.352137 0.412503
-0.826403 0.40595 0.390209
-0.812377 0.453729 0.366298
-0.798683 0.496273 0.340321
-0.785549 0.534751 0.311373
-0.772692 0.570646 0.278047
-0.759141 0.605723 0.238337
-0.742886 0.64206 0.18942
-0.720048 0.68206 0.127773
-0.683632 0.727861 0.0535233
-0.624735 0.780484 -0.0234586
0.26509 0.430676 0.862696
0.284173 0.373578 0.882998
0.386364 0.27577 0.880155
0.517572 0.139297 0.844225
0.643809 -0.0278538 0.764679
0.734602 -0.20771 0.645923
0.775824 -0.379528 0.50404
0.769552 -0.529617 0.356785
0.725562 -0.653049 0.216994
0.654628 -0.750307 0.0921986
0.56617 -0.824179 -0.013445
0.468074 -0.878266 -0.0977566
0.366849 -0.916413 -0.160026
0.267554 -0.942371 -0.200879
0.173619 -0.959449 -0.222067
0.0867948 -0.970233 -0.226084
0.00731676 -0.976436 -0.215682
-0.0657429 -0.978905 -0.193451
-0.134022 -0.977722 -0.161545
-0.199388 -0.972346 -0.121606
-0.263487 -0.961755 -0.0748446
-0.327383 -0.944629 -0.0222744
-0.391356 -0.919573 0.035018
-0.454885 -0.8854 0.0956377
-0.516853 -0.841407 0.157789
-0.575886 -0.78755 0.219364
-0.630711 -0.724448 0.27817
-0.680398 -0.653222 0.332204
-0.724418 -0.575257 0.379867
-0.762557 -0.491988 0.420065
-0.794755 -0.404794 0.452223
-0.820973 -0.314979 0.476226
-0.841129 -0.223826 0.492345
-0.855133 -0.132654 0.501149
-0.862979 -0.0428468 0.50342
-0.864858 0.0441751 0.50007
-0.861247 0.127034 0.492052
-0.852935 0.20451 0.480288
-0.840975 0.275667 0.465583
-0.826581 0.339944 0.448555
-0.810986 0.397213 0.429563
-0.795292 0.447796 0.408643
-0.780331 0.49244 0.38547
-0.766539 0.532273 0.359311
-0.753842 0.568751 0.329004
-0.741521 0.603616 0.292906
-0.727948 0.638896 0.248804
-0.709997 0.676931 0.194082
-0.68206 0.720048 0.127773
-0.636337 0.76964 0.0522436
0.261805 0.448672 0.854489
0.192092 0.444479 0.874951
0.27577 0.386364 0.880155
0.412464 0.282768 0.865977
0.564188 0.138019 0.814029
0.695165 -0.03505 0.717995
0.779791 -0.215091 0.587931
0.811266 -0.382832 0.441913
0.796161 -0.527815 0.295869
0.745368 -0.64716 0.160036
0.669308 -0.741891 0.0403087
0.576944 -0.814589 -0.0598363
0.475992 -0.868485 -0.138442
0.372981 -0.907128 -0.194945
0.272984 -0.934076 -0.230177
0.179321 -0.952503 -0.246134
0.0934935 -0.964876 -0.245506
0.0153962 -0.972799 -0.231137
-0.0562682 -0.977019 -0.205593
-0.123487 -0.977519 -0.170901
-0.188421 -0.973645 -0.128502
-0.252926 -0.964223 -0.0793913
-0.318168 -0.947721 -0.0243936
-0.384386 -0.922489 0.0355039
-0.450881 -0.88709 0.0988796
-0.516236 -0.840641 0.16378
-0.578708 -0.783059 0.227848
-0.636659 -0.71509 0.288638
-0.688837 -0.638116 0.343965
-0.734463 -0.553863 0.392174
-0.773128 -0.464137 0.432262
-0.804638 -0.370678 0.463849
-0.828883 -0.275133 0.487088
-0.845813 -0.1791 0.502518
-0.855487 -0.0841711 0.510938
-0.858183 0.00806179 0.513281
-0.854486 0.0960667 0.510514
-0.845329 0.178477 0.503552
-0.831943 0.254219 0.493198
-0.815753 0.322614 0.480069
-0.798221 0.383449 0.464553
-0.780678 0.436985 0.44675
-0.764172 0.483935 0.426436
-0.749343 0.525403 0.403035
-0.736308 0.562829 0.375597
-0.724558 0.597926 0.342784
-0.712769 0.632652 0.302839
-0.698402 0.669221 0.253726
-0.676931 0.709997 0.194082
-0.641359 0.757175 0.123874
-0.582202 0.811764 0.0456164
0.133092 0.476737 0.868912
0.155703 0.476665 0.865186
0.282768 0.412464 0.865977
0.448115 0.301918 0.84145
0.613973 0.149657 0.77501
0.745144 -0.027326 0.666343
0.822563 -0.206464 0.529871
0.845809 -0.370868 0.38349
0.824158 -0.512728 0.240567
0.768581 -0.630372 0.109152
0.688851 -0.724879 -0.00589806
0.593495 -0.79843 -0.10136
0.490166 -0.853828 -0.175257
0.385518 -0.894331 -0.227041
0.284718 -0.92333 -0.257678
0.191024 -0.943904 -0.269361
0.105717 -0.95845 -0.264949
0.0283638 -0.968509 -0.247357
-0.0427019 -0.974767 -0.219104
-0.109819 -0.977135 -0.182061
-0.175439 -0.974848 -0.13745
-0.241601 -0.966555 -0.086028
-0.309508 -0.950472 -0.0284368
-0.379261 -0.92465 0.0343948
-0.449851 -0.887382 0.100936
-0.519426 -0.837643 0.16897
-0.585782 -0.775408 0.235802
-0.646866 -0.701678 0.298683
-0.701124 -0.618229 0.355272
-0.747573 -0.527226 0.403939
-0.785689 -0.430902 0.443866
-0.815234 -0.331379 0.474954
-0.836146 -0.23065 0.497655
-0.848537 -0.130608 0.512763
-0.852767 -0.0330803 0.521243
-0.849531 0.0602037 0.524092
-0.839906 0.147703 0.522246
-0.825316 0.228191 0.51651
-0.807409 0.300868 0.507514
-0.787892 0.365434 0.495666
-0.768343 0.422103 0.481122
-0.750044 0.471564 0.463747
-0.733841 0.514919 0.443098
-0.720043 0.553599 0.418409
-0.708325 0.589296 0.388594
-0.697608 0.62391 0.352249
-0.685794 0.659528 0.307751
-0.669221 0.698402 0.253726
-0.64206 0.742886 0.18942
-0.596307 0.794808 0.112687
0.133664 0.457595 0.879057
0.0441512 0.538412 0.841524
0.139297 0.517572 0.844225
0.301918 0.448115 0.84145
0.49013 0.330603 0.80652
0.664086 0.172124 0.727574
0.79205 -0.00693234 0.610417
0.862221 -0.184419 0.471767
0.879064 -0.346156 0.327753
0.853041 -0.48639 0.189068
0.794489 -0.604095 0.0621021
0.712347 -0.700127 -0.0488262
0.614731 -0.776138 -0.140413
0.509319 -0.834447 -0.210456
0.403001 -0.877992 -0.258303
0.301142 -0.909993 -0.285003
0.20702 -0.933451 -0.292938
0.121737 -0.950723 -0.285141
0.0445425 -0.963326 -0.264613
-0.026614 -0.971914 -0.233825
-0.0944494 -0.976347 -0.194488
-0.16172 -0.975739 -0.147577
-0.230638 -0.968527 -0.0935999
-0.302382 -0.952615 -0.0330285
-0.376803 -0.925698 0.0332102
-0.452432 -0.885787 0.103376
-0.526837 -0.831782 0.174873
-0.597246 -0.763855 0.244585
-0.661169 -0.683437 0.309464
-0.716783 -0.592846 0.367089
-0.762986 -0.494782 0.415984
-0.79924 -0.391939 0.455631
-0.825386 -0.286825 0.486281
-0.841553 -0.18175 0.50868
-0.848173 -0.0788612 0.523817
-0.846053 0.0198568 0.53273
-0.836422 0.112647 0.536384
-0.820904 0.198101 0.535604
-0.801391 0.275279 0.53103
-0.779858 0.34379 0.523096
-0.758156 0.403799 0.512002
-0.73782 0.455987 0.497692
-0.719923 0.501462 0.47984
-0.704969 0.541664 0.457841
-0.69281 0.578279 0.430823
-0.682569 0.613162 0.397658
-0.672479 0.648298 0.357046
-0.659528 0.685794 0.307751
-0.638896 0.727948 0.248804
-0.603428 0.777234 0.178273
-0.542829 0.834019 0.0987368
-0.0266285 0.549022 0.835384
-0.00325494 0.591948 0.80597
0.138019 0.564188 0.814029
0.330603 0.49013 0.80652
0.53521 0.366036 0.761293
0.71162 0.202993 0.6726
0.834069 0.0236552 0.551153
0.897678 -0.151456 0.413806
0.910092 -0.310859 0.274042
0.881771 -0.450374 0.140156
0.821947 -0.569298 0.0173988
0.738595 -0.668109 -0.0900477
0.639411 -0.747852 -0.178525
0.532171 -0.810285 -0.245423
0.424122 -0.857953 -0.289891
0.32095 -0.893868 -0.313035
0.226037 -0.920941 -0.31745
0.140346 -0.941505 -0.306384
0.0627948 -0.957076 -0.282952
-0.00908547 -0.96831 -0.249585
-0.0784322 -0.97502 -0.207811
-0.148329 -0.976181 -0.158332
-0.221132 -0.969959 -0.101388
-0.297908 -0.953865 -0.0373045
-0.378102 -0.925179 0.0329084
-0.459592 -0.881641 0.107167
-0.539195 -0.822199 0.182366
-0.613487 -0.747431 0.254913
-0.679557 -0.659416 0.321516
-0.735409 -0.561167 0.379824
-0.779949 -0.455982 0.428673
-0.812772 -0.347015 0.467956
-0.833954 -0.237122 0.498291
-0.843979 -0.128877 0.520663
-0.843762 -0.0245963 0.536153
-0.834689 0.0736939 0.545768
-0.818594 0.164362 0.550354
-0.797631 0.246299 0.550565
-0.774073 0.319001 0.546855
-0.750074 0.382583 0.539462
-0.727456 0.437721 0.528402
-0.707542 0.485542 0.513452
-0.691047 0.52751 0.494153
-0.678003 0.565318 0.469816
-0.667712 0.600799 0.439547
-0.658658 0.635862 0.402306
-0.648298 0.672479 0.357046
-0.632652 0.712769 0.302839
-0.605723 0.759141 0.238337
-0.559033 0.813509 0.160265
-0.0299298 0.498578 0.866328
-0.128458 0.630723 0.765302
-0.0278538 0.643809 0.764679
0.149657 0.613973 0.77501
0.366036 0.53521 0.761293
0.580059 0.405217 0.706634
0.754051 0.239574 0.611565
0.869713 0.061798 0.489673
0.927895 -0.110024 0.356237
0.937826 -0.266939 0.221869
0.909133 -0.406009 0.09292
0.849649 -0.526704 -0.0260513
0.766271 -0.629087 -0.130685
0.666246 -0.71354 -0.216743
0.557495 -0.781158 -0.281054
0.447731 -0.833987 -0.322495
0.34308 -0.874738 -0.342241
0.247109 -0.906192 -0.343152
0.160652 -0.930651 -0.328754
0.0822687 -0.949655 -0.302303
0.00901183 -0.96388 -0.266184
-0.0627197 -0.973095 -0.221702
-0.136342 -0.976098 -0.169246
-0.214295 -0.970694 -0.108772
-0.297389 -0.953897 -0.040509
-0.384437 -0.922513 0.0343175
-0.47242 -0.874086 0.113104
-0.557235 -0.807829 0.192101
-0.634769 -0.725018 0.267242
-0.701793 -0.628625 0.335138
-0.756312 -0.522475 0.393716
-0.797432 -0.410468 0.442287
-0.825061 -0.296161 0.481211
-0.839686 -0.182684 0.511423
-0.842319 -0.0727792 0.534044
-0.834499 0.03119 0.550125
-0.81828 0.127319 0.560543
-0.796095 0.214286 0.565964
-0.770543 0.291449 0.566851
-0.744122 0.358855 0.563476
-0.718978 0.417174 0.55591
-0.696719 0.467563 0.544029
-0.678295 0.511523 0.527504
-0.66393 0.550773 0.505813
-0.653096 0.587136 0.478265
-0.644474 0.622476 0.444045
-0.635862 0.658658 0.402306
-0.62391 0.697608 0.352249
-0.603616 0.741521 0.292906
-0.567593 0.79285 0.221871
-0.505535 0.850958 0.142495
-0.209181 0.615799 0.759628
-0.181101 0.686376 0.704337
-0.03505 0.695165 0.717995
0.172124 0.664086 0.727574
0.405217 0.580059 0.706634
0.62179 0.445241 0.644312
0.789616 0.279213 0.546394
0.898071 0.104916 0.427155
0.952106 -0.0624425 0.299324
0.961281 -0.216202 0.170865
0.933898 -0.354481 0.0466661
0.876228 -0.476923 -0.0690507
0.793996 -0.583226 -0.171515
0.693936 -0.673091 -0.255737
0.584122 -0.746837 -0.31786
0.472812 -0.805849 -0.35645
0.366663 -0.852401 -0.372788
0.269477 -0.889059 -0.370075
0.181951 -0.918077 -0.352176
0.102233 -0.941031 -0.322505
0.0268432 -0.958635 -0.283371
-0.0483169 -0.9706 -0.235799
-0.126969 -0.975473 -0.17981
-0.21152 -0.970575 -0.115077
-0.302292 -0.952297 -0.0418357
-0.397164 -0.916949 0.0382762
-0.491931 -0.862056 0.121918
-0.581435 -0.787447 0.2046
-0.660957 -0.695467 0.281888
-0.727177 -0.590197 0.350543
-0.778364 -0.476307 0.409001
-0.814052 -0.358219 0.457163
-0.834659 -0.239786 0.49583
-0.841264 -0.124295 0.526141
-0.835557 -0.0145277 0.549211
-0.819804 0.0872797 0.565953
-0.796732 0.179544 0.577045
-0.769293 0.261444 0.582954
-0.740365 0.332937 0.583963
-0.712465 0.394677 0.580193
-0.68753 0.447854 0.571602
-0.666781 0.494023 0.557982
-0.650657 0.534938 0.538969
-0.638798 0.572436 0.514056
-0.630057 0.608353 0.482633
-0.622476 0.644474 0.444045
-0.613162 0.682569 0.397658
-0.597926 0.724558 0.342784
-0.570646 0.772692 0.278047
-0.522796 0.828703 0.199839
-0.217641 0.541674 0.811925
-0.309208 0.693119 0.651134
-0.20771 0.734602 0.645923
-0.027326 0.745144 0.666343
0.202993 0.71162 0.6726
0.445241 0.62179 0.644312
0.658331 0.483681 0.576761
0.817478 0.319608 0.479146
0.918849 0.150713 0.364695
0.969888 -0.010794 0.243314
0.979652 -0.160304 0.120766
0.954903 -0.296918 0.000907836
0.900308 -0.420565 -0.112119
0.820354 -0.530715 -0.212981
0.72117 -0.626425 -0.295813
0.61093 -0.707128 -0.355998
0.498448 -0.773342 -0.39178
0.390954 -0.826713 -0.4046
0.292496 -0.869471 -0.398079
0.203605 -0.90378 -0.376465
0.121961 -0.931263 -0.34333
0.0435033 -0.952681 -0.300844
-0.0363688 -0.967646 -0.249675
-0.121605 -0.974336 -0.189423
-0.214379 -0.96941 -0.119523
-0.314186 -0.948502 -0.0403977
-0.41756 -0.907503 0.0456245
-0.518829 -0.844272 0.134243
-0.61177 -0.759758 0.220239
-0.691323 -0.657753 0.299056
-0.75444 -0.543559 0.367918
-0.799972 -0.422599 0.425974
-0.828123 -0.299658 0.473728
-0.840002 -0.178732 0.5123
-0.837437 -0.0631211 0.542876
-0.822905 0.0445361 0.566431
-0.799422 0.142343 0.583663
-0.770309 0.229253 0.595035
-0.738862 0.3051 0.600831
-0.708016 0.370504 0.601199
-0.68009 0.426692 0.596164
-0.656618 0.475277 0.585631
-0.638287 0.518067 0.569382
-0.624924 0.556927 0.547086
-0.615537 0.593679 0.518325
-0.608353 0.630057 0.482633
-0.600799 0.667712 0.439547
-0.589296 0.708325 0.388594
-0.568751 0.753842 0.329004
-0.531829 0.806488 0.258332
-0.468814 0.864666 0.180461
-0.392616 0.65277 0.647876
-0.357466 0.738323 0.571924
-0.215091 0.779791 0.587931
-0.00693234 0.79205 0.610417
0.239574 0.754051 0.611565
0.483681 0.658331 0.576761
0.688589 0.518847 0.5066
0.837634 0.359006 0.411684
0.932275 0.197324 0.303194
0.981141 0.0431399 0.188417
0.992344 -0.100758 0.0714197
0.971101 -0.234459 -0.0446223
0.920547 -0.358357 -0.155478
0.843914 -0.471911 -0.255165
0.746619 -0.573635 -0.336902
0.63681 -0.661988 -0.395279
0.523773 -0.736399 -0.428227
0.415269 -0.797643 -0.437399
0.31556 -0.847457 -0.426895
0.224967 -0.887859 -0.401368
0.140655 -0.920518 -0.364504
0.0579519 -0.946233 -0.318251
-0.0282099 -0.964432 -0.262822
-0.121856 -0.972726 -0.197372
-0.224594 -0.966883 -0.121221
-0.3346 -0.9417 -0.0352658
-0.446593 -0.892912 0.0571289
-0.553242 -0.819303 0.150551
-0.647498 -0.723544 0.23923
-0.724439 -0.611153 0.318873
-0.781752 -0.488585 0.387489
-0.819186 -0.361787 0.445022
-0.83781 -0.235692 0.492467
-0.839582 -0.114268 0.531079
-0.827188 -0.000638208 0.561924
-0.80393 0.102927 0.58575
-0.773498 0.195108 0.60302
-0.739628 0.275576 0.61401
-0.705719 0.344895 0.618877
-0.674522 0.404318 0.617695
-0.647942 0.455524 0.610466
-0.626955 0.500389 0.597109
-0.611602 0.540815 0.577462
-0.60105 0.578631 0.551293
-0.593679 0.615537 0.518325
-0.587136 0.653096 0.478265
-0.578279 0.69281 0.430823
-0.562829 0.736308 0.375597
-0.534751 0.785549 0.311373
-0.485922 0.84201 0.234307
-0.403846 0.56473 0.719714
-0.477386 0.712517 0.51422
-0.379528 0.775824 0.50404
-0.206464 0.822563 0.529871
0.0236552 0.834069 0.551153
0.279213 0.789616 0.546394
0.518847 0.688589 0.5066
0.712353 0.549831 0.436164
0.850671 0.396251 0.345463
0.938925 0.243356 0.243304
0.986025 0.0978931 0.134802
0.99898 -0.0389689 0.0227908
0.981615 -0.168337 -0.0899649
0.935703 -0.291279 -0.199038
0.863284 -0.407501 -0.297798
0.768967 -0.515143 -0.378574
0.660666 -0.61166 -0.435193
0.547936 -0.695177 -0.46529
0.43893 -0.765332 -0.470752
0.338042 -0.823186 -0.456172
0.245329 -0.870538 -0.426589
0.157397 -0.90909 -0.385722
0.068967 -0.939627 -0.33518
-0.0254003 -0.961214 -0.274632
-0.129524 -0.970612 -0.202821
-0.243927 -0.962441 -0.119191
-0.364813 -0.93073 -0.0255336
-0.484632 -0.871633 0.0734014
-0.59448 -0.785696 0.171101
-0.687048 -0.67787 0.261642
-0.758216 -0.555439 0.341463
-0.806864 -0.425712 0.409561
-0.833877 -0.294849 0.466598
-0.841332 -0.167704 0.513844
-0.832142 -0.0480168 0.55248
-0.809895 0.0615005 0.583341
-0.778652 0.159205 0.606923
-0.742592 0.244561 0.623495
-0.705608 0.318051 0.633215
-0.670931 0.380941 0.636189
-0.640893 0.434977 0.632496
-0.616811 0.482111 0.622184
-0.598981 0.5243 0.605253
-0.58675 0.563386 0.581654
-0.578631 0.60105 0.551293
-0.572436 0.638798 0.514056