# vtk DataFile Version 2.0
tmp/0.000.00-10.000.000.001.0041.vtk
ASCII
DATASET UNSTRUCTURED_GRID
POINTS 5000 float
0.25 0.25 0
1.25 0.25 0
2.25 0.25 0
3.25 0.25 0
4.25 0.25 0
5.25 0.25 0
6.25 0.25 0
7.25 0.25 0
8.25 0.25 0
9.25 0.25 0
10.25 0.25 0
11.25 0.25 0
12.25 0.25 0
13.25 0.25 0
14.25 0.25 0
15.25 0.25 0
16.25 0.25 0
17.25 0.25 0
18.25 0.25 0
19.25 0.25 0
20.25 0.25 0
21.25 0.25 0
22.25 0.25 0
23.25 0.25 0
24.25 0.25 0
25.25 0.25 0
26.25 0.25 0
27.25 0.25 0
28.25 0.25 0
29.25 0.25 0
30.25 0.25 0
31.25 0.25 0
32.25 0.25 0
33.25 0.25 0
34.25 0.25 0
35.25 0.25 0
36.25 0.25 0
37.25 0.25 0
38.25 0.25 0
39.25 0.25 0
40.25 0.25 0
41.25 0.25 0
42.25 0.25 0
43.25 0.25 0
44.25 0.25 0
45.25 0.25 0
46.25 0.25 0
47.25 0.25 0
48.25 0.25 0
49.25 0.25 0
0.75 0.75 0
1.75 0.75 0
2.75 0.75 0
3.75 0.75 0
4.75 0.75 0
5.75 0.75 0
6.75 0.75 0
7.75 0.75 0
8.75 0.75 0
9.75 0.75 0
10.75 0.75 0
11.75 0.75 0
12.75 0.75 0
13.75 0.75 0
14.75 0.75 0
15.75 0.75 0
16.75 0.75 0
17.75 0.75 0
18.75 0.75 0
19.75 0.75 0
20.75 0.75 0
21.75 0.75 0
22.75 0.75 0
23.75 0.75 0
24.75 0.75 0
25.75 0.75 0
26.75 0.75 0
27.75 0.75 0
28.75 0.75 0
29.75 0.75 0
30.75 0.75 0
31.75 0.75 0
32.75 0.75 0
33.75 0.75 0
34.75 0.75 0
35.75 0.75 0
36.75 0.75 0
37.75 0.75 0
38.75 0.75 0
39.75 0.75 0
40.75 0.75 0
41.75 0.75 0
42.75 0.75 0
43.75 0.75 0
44.75 0.75 0
45.75 0.75 0
46.75 0.75 0
47.75 0.75 0
48.75 0.75 0
49.75 0.75 0
0.25 1.25 0
1.25 1.25 0
2.25 1.25 0
3.25 1.25 0
4.25 1.25 0
5.25 1.25 0
6.25 1.25 0
7.25 1.25 0
8.25 1.25 0
9.25 1.25 0
10.25 1.25 0
11.25 1.25 0
12.25 1.25 0
13.25 1.25 0
14.25 1.25 0
15.25 1.25 0
16.25 1.25 0
17.25 1.25 0
18.25 1.25 0
19.25 1.25 0
20.25 1.25 0
21.25 1.25 0
22.25 1.25 0
23.25 1.25 0
24.25 1.25 0
25.25 1.25 0
26.25 1.25 0
27.25 1.25 0
28.25 1.25 0
29.25 1.25 0
30.25 1.25 0
31.25 1.25 0
32.25 1.25 0
33.25 1.25 0
34.25 1.25 0
35.25 1.25 0
36.25 1.25 0
37.25 1.25 0
38.25 1.25 0
39.25 1.25 0
40.25 1.25 0
41.25 1.25 0
42.25 1.25 0
43.25 1.25 0
44.25 1.25 0
45.25 1.25 0
46.25 1.25 0
47.25 1.25 0
48.25 1.25 0
49.25 1.25 0
0.75 1.75 0
1.75 1.75 0
2.75 1.75 0
3.75 1.75 0
4.75 1.75 0
5.75 1.75 0
6.75 1.75 0
7.75 1.75 0
8.75 1.75 0
9.75 1.75 0
10.75 1.75 0
11.75 1.75 0
12.75 1.75 0
13.75 1.75 0
14.75 1.75 0
15.75 1.75 0
16.75 1.75 0
17.75 1.75 0
18.75 1.75 0
19.75 1.75 0
20.75 1.75 0
21.75 1.75 0
22.75 1.75 0
23.75 1.75 0
24.75 1.75 0
25.75 1.75 0
26.75 1.75 0
27.75 1.75 0
28.75 1.75 0
29.75 1.75 0
30.75 1.75 0
31.75 1.75 0
32.75 1.75 0
33.75 1.75 0
34.75 1.75 0
35.75 1.75 0
36.75 1.75 0
37.75 1.75 0
38.75 1.75 0
39.75 1.75 0
40.75 1.75 0
41.75 1.75 0
42.75 1.75 0
43.75 1.75 0
44.75 1.75 0
45.75 1.75 0
46.75 1.75 0
47.75 1.75 0
48.75 1.75 0
49.75 1.75 0
0.25 2.25 0
1.25 2.25 0
2.25 2.25 0
3.25 2.25 0
4.25 2.25 0
5.25 2.25 0
6.25 2.25 0
7.25 2.25 0
8.25 2.25 0
9.25 2.25 0
10.25 2.25 0
11.25 2.25 0
12.25 2.25 0
13.25 2.25 0
14.25 2.25 0
15.25 2.25 0
16.25 2.25 0
17.25 2.25 0
18.25 2.25 0
19.25 2.25 0
20.25 2.25 0
21.25 2.25 0
22.25 2.25 0
23.25 2.25 0
24.25 2.25 0
25.25 2.25 0
26.25 2.25 0
27.25 2.25 0
28.25 2.25 0
29.25 2.25 0
30.25 2.25 0
31.25 2.25 0
32.25 2.25 0
33.25 2.25 0
34.25 2.25 0
35.25 2.25 0
36.25 2.25 0
37.25 2.25 0
38.25 2.25 0
39.25 2.25 0
40.25 2.25 0
41.25 2.25 0
42.25 2.25 0
43.25 2.25 0
44.25 2.25 0
45.25 2.25 0
46.25 2.25 0
47.25 2.25 0
48.25 2.25 0
49.25 2.25 0
0.75 2.75 0
1.75 2.75 0
2.75 2.75 0
3.75 2.75 0
4.75 2.75 0
5.75 2.75 0
6.75 2.75 0
7.75 2.75 0
8.75 2.75 0
9.75 2.75 0
10.75 2.75 0
11.75 2.75 0
12.75 2.75 0
13.75 2.75 0
14.75 2.75 0
15.75 2.75 0
16.75 2.75 0
17.75 2.75 0
18.75 2.75 0
19.75 2.75 0
20.75 2.75 0
21.75 2.75 0
22.75 2.75 0
23.75 2.75 0
24.75 2.75 0
25.75 2.75 0
26.75 2.75 0
27.75 2.75 0
28.75 2.75 0
29.75 2.75 0
30.75 2.75 0
31.75 2.75 0
32.75 2.75 0
33.75 2.75 0
34.75 2.75 0
35.75 2.75 0
36.75 2.75 0
37.75 2.75 0
38.75 2.75 0
39.75 2.75 0
40.75 2.75 0
41.75 2.75 0
42.75 2.75 0
43.75 2.75 0
44.75 2.75 0
45.75 2.75 0
46.75 2.75 0
47.75 2.75 0
48.75 2.75 0
49.75 2.75 0
0.25 3.25 0
1.25 3.25 0
2.25 3.25 0
3.25 3.25 0
4.25 3.25 0
5.25 3.25 0
6.25 3.25 0
7.25 3.25 0
8.25 3.25 0
9.25 3.25 0
10.25 3.25 0
11.25 3.25 0
12.25 3.25 0
13.25 3.25 0
14.25 3.25 0
15.25 3.25 0
16.25 3.25 0
17.25 3.25 0
18.25 3.25 0
19.25 3.25 0
20.25 3.25 0
21.25 3.25 0
22.25 3.25 0
23.25 3.25 0
24.25 3.25 0
25.25 3.25 0
26.25 3.25 0
27.25 3.25 0
28.25 3.25 0
29.25 3.25 0
30.25 3.25 0
31.25 3.25 0
32.25 3.25 0
33.25 3.25 0
34.25 3.25 0
35.25 3.25 0
36.25 3.25 0
37.25 3.25 0
38.25 3.25 0
39.25 3.25 0
40.25 3.25 0
41.25 3.25 0
42.25 3.25 0
43.25 3.25 0
44.25 3.25 0
45.25 3.25 0
46.25 3.25 0
47.25 3.25 0
48.25 3.25 0
49.25 3.25 0
0.75 3.75 0
1.75 3.75 0
2.75 3.75 0
3.75 3.75 0
4.75 3.75 0
5.75 3.75 0
6.75 3.75 0
7.75 3.75 0
8.75 3.75 0
9.75 3.75 0
10.75 3.75 0
11.75 3.75 0
12.75 3.75 0
13.75 3.75 0
14.75 3.75 0
15.75 3.75 0
16.75 3.75 0
17.75 3.75 0
18.75 3.75 0
19.75 3.75 0
20.75 3.75 0
21.75 3.75 0
22.75 3.75 0
23.75 3.75 0
24.75 3.75 0
25.75 3.75 0
26.75 3.75 0
27.75 3.75 0
28.75 3.75 0
29.75 3.75 0
30.75 3.75 0
31.75 3.75 0
32.75 3.75 0
33.75 3.75 0
34.75 3.75 0
35.75 3.75 0
36.75 3.75 0
37.75 3.75 0
38.75 3.75 0
39.75 3.75 0
40.75 3.75 0
41.75 3.75 0
42.75 3.75 0
43.75 3.75 0
44.75 3.75 0
45.75 3.75 0
46.75 3.75 0
47.75 3.75 0
48.75 3.75 0
49.75 3.75 0
0.25 4.25 0
1.25 4.25 0
2.25 4.25 0
3.25 4.25 0
4.25 4.25 0
5.25 4.25 0
6.25 4.25 0
7.25 4.25 0
8.25 4.25 0
9.25 4.25 0
10.25 4.25 0
11.25 4.25 0
12.25 4.25 0
13.25 4.25 0
14.25 4.25 0
15.25 4.25 0
16.25 4.25 0
17.25 4.25 0
18.25 4.25 0
19.25 4.25 0
20.25 4.25 0
21.25 4.25 0
22.25 4.25 0
23.25 4.25 0
24.25 4.25 0
25.25 4.25 0
26.25 4.25 0
27.25 4.25 0
28.25 4.25 0
29.25 4.25 0
30.25 4.25 0
31.25 4.25 0
32.25 4.25 0
33.25 4.25 0
34.25 4.25 0
35.25 4.25 0
36.25 4.25 0
37.25 4.25 0
38.25 4.25 0
39.25 4.25 0
40.25 4.25 0
41.25 4.25 0
42.25 4.25 0
43.25 4.25 0
44.25 4.25 0
45.25 4.25 0
46.25 4.25 0
47.25 4.25 0
48.25 4.25 0
49.25 4.25 0
0.75 4.75 0
1.75 4.75 0
2.75 4.75 0
3.75 4.75 0
4.75 4.75 0
5.75 4.75 0
6.75 4.75 0
7.75 4.75 0
8.75 4.75 0
9.75 4.75 0
10.75 4.75 0
11.75 4.75 0
12.75 4.75 0
13.75 4.75 0
14.75 4.75 0
15.75 4.75 0
16.75 4.75 0
17.75 4.75 0
18.75 4.75 0
19.75 4.75 0
20.75 4.75 0
21.75 4.75 0
22.75 4.75 0
23.75 4.75 0
24.75 4.75 0
25.75 4.75 0
26.75 4.75 0
27.75 4.75 0
28.75 4.75 0
29.75 4.75 0
30.75 4.75 0
31.75 4.75 0
32.75 4.75 0
33.75 4.75 0
34.75 4.75 0
35.75 4.75 0
36.75 4.75 0
37.75 4.75 0
38.75 4.75 0
39.75 4.75 0
40.75 4.75 0
41.75 4.75 0
42.75 4.75 0
43.75 4.75 0
44.75 4.75 0
45.75 4.75 0
46.75 4.75 0
47.75 4.75 0
48.75 4.75 0
49.75 4.75 0
0.25 5.25 0
1.25 5.25 0
2.25 5.25 0
3.25 5.25 0
4.25 5.25 0
5.25 5.25 0
6.25 5.25 0
7.25 5.25 0
8.25 5.25 0
9.25 5.25 0
10.25 5.25 0
11.25 5.25 0
12.25 5.25 0
13.25 5.25 0
14.25 5.25 0
15.25 5.25 0
16.25 5.25 0
17.25 5.25 0
18.25 5.25 0
19.25 5.25 0
20.25 5.25 0
21.25 5.25 0
22.25 5.25 0
23.25 5.25 0
24.25 5.25 0
25.25 5.25 0
26.25 5.25 0
27.25 5.25 0
28.25 5.25 0
29.25 5.25 0
30.25 5.25 0
31.25 5.25 0
32.25 5.25 0
33.25 5.25 0
34.25 5.25 0
35.25 5.25 0
36.25 5.25 0
37.25 5.25 0
38.25 5.25 0
39.25 5.25 0
40.25 5.25 0
41.25 5.25 0
42.25 5.25 0
43.25 5.25 0
44.25 5.25 0
45.25 5.25 0
46.25 5.25 0
47.25 5.25 0
48.25 5.25 0
49.25 5.25 0
0.75 5.75 0
1.75 5.75 0
2.75 5.75 0
3.75 5.75 0
4.75 5.75 0
5.75 5.75 0
6.75 5.75 0
7.75 5.75 0
8.75 5.75 0
9.75 5.75 0
10.75 5.75 0
11.75 5.75 0
12.75 5.75 0
13.75 5.75 0
14.75 5.75 0
15.75 5.75 0
16.75 5.75 0
17.75 5.75 0
18.75 5.75 0
19.75 5.75 0
20.75 5.75 0
21.75 5.75 0
22.75 5.75 0
23.75 5.75 0
24.75 5.75 0
25.75 5.75 0
26.75 5.75 0
27.75 5.75 0
28.75 5.75 0
29.75 5.75 0
30.75 5.75 0
31.75 5.75 0
32.75 5.75 0
33.75 5.75 0
34.75 5.75 0
35.75 5.75 0
36.75 5.75 0
37.75 5.75 0
38.75 5.75 0
39.75 5.75 0
40.75 5.75 0
41.75 5.75 0
42.75 5.75 0
43.75 5.75 0
44.75 5.75 0
45.75 5.75 0
46.75 5.75 0
47.75 5.75 0
48.75 5.75 0
49.75 5.75 0
0.25 6.25 0
1.25 6.25 0
2.25 6.25 0
3.25 6.25 0
4.25 6.25 0
5.25 6.25 0
6.25 6.25 0
7.25 6.25 0
8.25 6.25 0
9.25 6.25 0
10.25 6.25 0
11.25 6.25 0
12.25 6.25 0
13.25 6.25 0
14.25 6.25 0
15.25 6.25 0
16.25 6.25 0
17.25 6.25 0
18.25 6.25 0
19.25 6.25 0
20.25 6.25 0
21.25 6.25 0
22.25 6.25 0
23.25 6.25 0
24.25 6.25 0
25.25 6.25 0
26.25 6.25 0
27.25 6.25 0
28.25 6.25 0
29.25 6.25 0
30.25 6.25 0
31.25 6.25 0
32.25 6.25 0
33.25 6.25 0
34.25 6.25 0
35.25 6.25 0
36.25 6.25 0
37.25 6.25 0
38.25 6.25 0
39.25 6.25 0
40.25 6.25 0
41.25 6.25 0
42.25 6.25 0
43.25 6.25 0
44.25 6.25 0
45.25 6.25 0
46.25 6.25 0
47.25 6.25 0
48.25 6.25 0
49.25 6.25 0
0.75 6.75 0
1.75 6.75 0
2.75 6.75 0
3.75 6.75 0
4.75 6.75 0
5.75 6.75 0
6.75 6.75 0
7.75 6.75 0
8.75 6.75 0
9.75 6.75 0
10.75 6.75 0
11.75 6.75 0
12.75 6.75 0
13.75 6.75 0
14.75 6.75 0
15.75 6.75 0
16.75 6.75 0
17.75 6.75 0
18.75 6.75 0
19.75 6.75 0
20.75 6.75 0
21.75 6.75 0
22.75 6.75 0
23.75 6.75 0
24.75 6.75 0
25.75 6.75 0
26.75 6.75 0
27.75 6.75 0
28.75 6.75 0
29.75 6.75 0
30.75 6.75 0
31.75 6.75 0
32.75 6.75 0
33.75 6.75 0
34.75 6.75 0
35.75 6.75 0
36.75 6.75 0
37.75 6.75 0
38.75 6.75 0
39.75 6.75 0
40.75 6.75 0
41.75 6.75 0
42.75 6.75 0
43.75 6.75 0
44.75 6.75 0
45.75 6.75 0
46.75 6.75 0
47.75 6.75 0
48.75 6.75 0
49.75 6.75 0
0.25 7.25 0
1.25 7.25 0
2.25 7.25 0
3.25 7.25 0
4.25 7.25 0
5.25 7.25 0
6.25 7.25 0
7.25 7.25 0
8.25 7.25 0
9.25 7.25 0
10.25 7.25 0
11.25 7.25 0
12.25 7.25 0
13.25 7.25 0
14.25 7.25 0
15.25 7.25 0
16.25 7.25 0
17.25 7.25 0
18.25 7.25 0
19.25 7.25 0
20.25 7.25 0
21.25 7.25 0
22.25 7.25 0
23.25 7.25 0
24.25 7.25 0
25.25 7.25 0
26.25 7.25 0
27.25 7.25 0
28.25 7.25 0
29.25 7.25 0
30.25 7.25 0
31.25 7.25 0
32.25 7.25 0
33.25 7.25 0
34.25 7.25 0
35.25 7.25 0
36.25 7.25 0
37.25 7.25 0
38.25 7.25 0
39.25 7.25 0
40.25 7.25 0
41.25 7.25 0
42.25 7.25 0
43.25 7.25 0
44.25 7.25 0
45.25 7.25 0
46.25 7.25 0
47.25 7.25 0
48.25 7.25 0
49.25 7.25 0
0.75 7.75 0
1.75 7.75 0
2.75 7.75 0
3.75 7.75 0
4.75 7.75 0
5.75 7.75 0
6.75 7.75 0
7.75 7.75 0
8.75 7.75 0
9.75 7.75 0
10.75 7.75 0
11.75 7.75 0
12.75 7.75 0
13.75 7.75 0
14.75 7.75 0
15.75 7.75 0
16.75 7.75 0
17.75 7.75 0
18.75 7.75 0
19.75 7.75 0
20.75 7.75 0
21.75 7.75 0
[...]
POINT_DATA 5000
VECTORS velocity float
-0.423691 -0.423691 0.800608
-0.387568 -0.465797 0.795503
-0.302772 -0.549717 0.77855
-0.185172 -0.665139 0.723396
-0.0541957 -0.783974 0.618424
0.0721345 -0.882949 0.463894
0.179645 -0.946142 0.26934
0.257043 -0.965084 0.0504214
0.295622 -0.939392 -0.17364
0.290627 -0.876769 -0.38316
0.242833 -0.79099 -0.561575
0.158699 -0.698034 -0.698257
0.0487398 -0.611955 -0.78939
-0.0750651 -0.542154 -0.83692
-0.201626 -0.492692 -0.846523
-0.322202 -0.463171 -0.825626
-0.430937 -0.450275 -0.782014
-0.524748 -0.449252 -0.723058
-0.602889 -0.455042 -0.655333
-0.666356 -0.463029 -0.584444
-0.717236 -0.46949 -0.514929
-0.758093 -0.471803 -0.450219
-0.791449 -0.468404 -0.39269
-0.819446 -0.458586 -0.343812
-0.843657 -0.442257 -0.304388
-0.865045 -0.419747 -0.274791
-0.884002 -0.3917 -0.255169
-0.900451 -0.359012 -0.245556
-0.913968 -0.322784 -0.245913
-0.923914 -0.284261 -0.256084
-0.929563 -0.244754 -0.275696
-0.930231 -0.205529 -0.304021
-0.925403 -0.167691 -0.339866
-0.914867 -0.132085 -0.38154
-0.898819 -0.0992328 -0.426939
-0.877927 -0.069356 -0.473745
-0.853308 -0.042448 -0.519677
-0.826433 -0.0183697 -0.562736
-0.798948 0.00308894 -0.601392
-0.772459 0.0222121 -0.634677
-0.748309 0.0394238 -0.662178
-0.727386 0.0553864 -0.68399
-0.709949 0.0711205 -0.700653
-0.695481 0.088162 -0.713116
-0.682547 0.10875 -0.722705
-0.668572 0.135988 -0.731108
-0.649333 0.17385 -0.740367
-0.618103 0.226847 -0.752655
-0.565402 0.298764 -0.768805
-0.484052 0.388297 -0.784168
-0.430333 -0.430333 0.79349
-0.349248 -0.491952 0.797502
-0.221041 -0.59224 0.77485
-0.0723433 -0.705691 0.704817
0.0745192 -0.808965 0.583115
0.203899 -0.886425 0.415542
0.304834 -0.928114 0.213729
0.368669 -0.929538 -0.00657437
0.389151 -0.892773 -0.226976
0.364146 -0.826584 -0.429134
0.297001 -0.744394 -0.598054
0.196245 -0.660708 -0.724536
0.0736622 -0.587594 -0.805796
-0.0583008 -0.532558 -0.844383
-0.188706 -0.498206 -0.846275
-0.309366 -0.483202 -0.819029
-0.415199 -0.483722 -0.770469
-0.504002 -0.494789 -0.707931
-0.57595 -0.51124 -0.637899
-0.63297 -0.528353 -0.565855
-0.678063 -0.542213 -0.496222
-0.714635 -0.549875 -0.43236
-0.745919 -0.549315 -0.376639
-0.774545 -0.539241 -0.330604
-0.802253 -0.518896 -0.295189
-0.829726 -0.488007 -0.270932
-0.856553 -0.446876 -0.258107
-0.881363 -0.396576 -0.256761
-0.902176 -0.33909 -0.26664
-0.91692 -0.277206 -0.287077
-0.923973 -0.21413 -0.316893
-0.922515 -0.152888 -0.354389
-0.912613 -0.0958046 -0.39744
-0.895093 -0.0442486 -0.443677
-0.871324 0.00129111 -0.490707
-0.843022 0.0409312 -0.536319
-0.812097 0.0750922 -0.578671
-0.780491 0.104289 -0.616407
-0.750013 0.129049 -0.648712
-0.722166 0.149924 -0.675277
-0.698002 0.167545 -0.696219
-0.677998 0.18271 -0.711994
-0.66194 0.196541 -0.72333
-0.648838 0.21072 -0.731167
-0.636789 0.227749 -0.736634
-0.622612 0.251172 -0.741126
-0.600962 0.285643 -0.746494
-0.562904 0.336659 -0.754851
-0.496414 0.408663 -0.765877
-0.388297 0.484052 -0.784168
-0.465797 -0.387568 0.795503
-0.416298 -0.416298 0.808326
-0.292968 -0.492441 0.819556
-0.136561 -0.597809 0.789921
0.0254149 -0.706291 0.707465
0.173855 -0.800448 0.573636
0.296952 -0.868662 0.396542
0.386204 -0.90297 0.188392
0.434601 -0.899952 -0.0347623
0.437666 -0.862419 -0.254327
0.395409 -0.799459 -0.452235
0.313252 -0.724141 -0.614404
0.201145 -0.649947 -0.732878
0.071403 -0.587597 -0.805997
-0.0637186 -0.543361 -0.837077
-0.193879 -0.518984 -0.832506
-0.311632 -0.512685 -0.800025
-0.412639 -0.520527 -0.747516
-0.495405 -0.537619 -0.682305
-0.560779 -0.55896 -0.610811
-0.611357 -0.579956 -0.538418
-0.650806 -0.596729 -0.469431
-0.683169 -0.606248 -0.407115
-0.712243 -0.606247 -0.353799
-0.741083 -0.595008 -0.311064
-0.771602 -0.571179 -0.279973
-0.804244 -0.533799 -0.261248
-0.837775 -0.482637 -0.255331
-0.869415 -0.418726 -0.262271
-0.895475 -0.344786 -0.281508
-0.912463 -0.265077 -0.311683
-0.918147 -0.184523 -0.350653
-0.912058 -0.107486 -0.395725
-0.895263 -0.0369115 -0.444006
-0.869804 0.0258008 -0.492723
-0.838171 0.0803874 -0.539451
-0.802972 0.127187 -0.582288
-0.766717 0.166764 -0.619948
-0.731633 0.199739 -0.65178
-0.699515 0.226768 -0.677684
-0.671623 0.24853 -0.697965
-0.648618 0.265757 -0.713209
-0.630497 0.279365 -0.724174
-0.616547 0.290706 -0.731683
-0.605275 0.301897 -0.736546
-0.594172 0.316148 -0.739601
-0.578982 0.337971 -0.741994
-0.552102 0.373068 -0.745657
-0.500958 0.426804 -0.752914
-0.408663 0.496414 -0.765877
-0.491952 -0.349248 0.797502
-0.387443 -0.387443 0.836526
-0.231547 -0.474165 0.849443
-0.0584897 -0.580308 0.812294
0.10772 -0.685305 0.720245
0.252714 -0.776056 0.577817
0.367729 -0.842592 0.393464
0.445519 -0.877114 0.179396
0.479879 -0.876037 -0.047694
0.467657 -0.842206 -0.268302
0.410757 -0.784829 -0.464029
0.316392 -0.716774 -0.621394
0.195549 -0.650843 -0.733597
0.0606944 -0.596827 -0.800071
-0.0763545 -0.560179 -0.824845
-0.205913 -0.542138 -0.81467
-0.321189 -0.540744 -0.777453
-0.418435 -0.552117 -0.721166
-0.496689 -0.571546 -0.653174
-0.557322 -0.594231 -0.579899
-0.603454 -0.615728 -0.506678
-0.63927 -0.632228 -0.437746
-0.669274 -0.640677 -0.376304
-0.697624 -0.63868 -0.324666
-0.727571 -0.624263 -0.284493
-0.760968 -0.595707 -0.257024
-0.79781 -0.55167 -0.243228
-0.835941 -0.491721 -0.243748
-0.871273 -0.417137 -0.258614
-0.898817 -0.331429 -0.28685
-0.914309 -0.23996 -0.326281
-0.915561 -0.148562 -0.373734
-0.902798 -0.0619954 -0.425572
-0.878067 0.0168146 -0.478242
-0.844398 0.0865907 -0.528671
-0.805174 0.147084 -0.574509
-0.763717 0.198536 -0.614263
-0.722987 0.241421 -0.647306
-0.68535 0.276359 -0.673736
-0.652474 0.304051 -0.69414
-0.625306 0.325218 -0.709384
-0.60406 0.340674 -0.720453
-0.588219 0.351572 -0.728283
-0.576532 0.359759 -0.73361
-0.566903 0.368177 -0.736931
-0.555898 0.381159 -0.738712
-0.537447 0.404376 -0.74002
-0.500667 0.44352 -0.743385
-0.426804 0.500958 -0.752914
-0.298764 0.565402 -0.768805
-0.549717 -0.302772 0.77855
-0.492441 -0.292968 0.819556
-0.347731 -0.347731 0.870727
-0.169788 -0.440522 0.88154
0.0113609 -0.546376 0.837463
0.176869 -0.650451 0.738668
0.316696 -0.742313 0.590487
0.423892 -0.812321 0.400561
0.491498 -0.851887 0.180884
0.513557 -0.856546 -0.0508744
0.488001 -0.82879 -0.273793
0.418463 -0.777896 -0.468794
0.313673 -0.716708 -0.622848
0.185329 -0.657644 -0.730177
0.0458436 -0.609927 -0.79113
-0.093378 -0.578531 -0.810298
-0.223131 -0.564439 -0.794746
-0.337069 -0.565653 -0.75261
-0.431872 -0.578395 -0.692059
-0.507029 -0.59812 -0.620624
-0.564394 -0.620184 -0.544822
-0.607604 -0.640241 -0.470009
-0.64133 -0.654509 -0.400393
-0.670461 -0.659896 -0.339144
-0.699368 -0.653903 -0.288609
-0.731271 -0.634396 -0.25057
-0.767666 -0.599491 -0.226491
-0.8078 -0.547821 -0.217604
-0.848434 -0.479243 -0.224693
-0.884363 -0.395714 -0.247612
-0.909906 -0.301623 -0.284773
-0.920809 -0.202945 -0.333053
-0.915474 -0.10558 -0.388279
-0.894925 -0.0139722 -0.445998
-0.862006 0.0692414 -0.502147
-0.820512 0.142802 -0.553505
-0.774532 0.206261 -0.597961
-0.727929 0.259654 -0.634586
-0.683925 0.303371 -0.663485
-0.644881 0.338031 -0.685466
-0.612256 0.364317 -0.701723
-0.586618 0.382977 -0.713588
-0.567674 0.395029 -0.722287
-0.554338 0.402113 -0.728707
-0.544742 0.406931 -0.733255
-0.535969 0.413631 -0.735967
-0.523185 0.427806 -0.737062
-0.497744 0.455439 -0.738123
-0.44352 0.500667 -0.743385
-0.336659 0.562904 -0.754851
-0.59224 -0.221041 0.77485
-0.474165 -0.231547 0.849443
-0.300027 -0.300027 0.905521
-0.108871 -0.395929 0.911805
0.0744459 -0.501729 0.861815
0.236601 -0.606995 0.758668
0.370833 -0.702925 0.606943
0.470956 -0.779607 0.412812
0.529626 -0.82715 0.187932
0.540777 -0.839749 -0.0488019
0.50327 -0.819299 -0.274716
0.422315 -0.775168 -0.469856
0.307925 -0.720347 -0.621516
0.172313 -0.667115 -0.724752
0.0278654 -0.624386 -0.780619
-0.114229 -0.596866 -0.794168
-0.245004 -0.585407 -0.772833
-0.358397 -0.58801 -0.725118
-0.451456 -0.600989 -0.659545
-0.524139 -0.619926 -0.583926
-0.578851 -0.640285 -0.504943
-0.61981 -0.657757 -0.428009
-0.652214 -0.668531 -0.357327
-0.681319 -0.669437 -0.296071
-0.711605 -0.65786 -0.246656
-0.746057 -0.631555 -0.211039
-0.785519 -0.588645 -0.190934
-0.828184 -0.528064 -0.187775
-0.869608 -0.450399 -0.202293
-0.903714 -0.358632 -0.233845
-0.924706 -0.257977 -0.27994
-0.928938 -0.154572 -0.336424
-0.915694 -0.0538677 -0.398249
-0.886808 0.0402405 -0.460383
-0.845827 0.12535 -0.51852
-0.797212 0.200097 -0.569573
-0.745616 0.263837 -0.611921
-0.695227 0.316535 -0.645341
-0.649345 0.358592 -0.670644
-0.610213 0.39059 -0.68926
-0.578979 0.4132 -0.702886
-0.555715 0.427324 -0.713145
-0.539533 0.434418 -0.721239
-0.528698 0.436954 -0.727702
-0.520571 0.438862 -0.732397
-0.511134 0.445633 -0.734951
-0.493643 0.463503 -0.735854
-0.455439 0.497744 -0.738123
-0.373068 0.552102 -0.745657
-0.226847 0.618103 -0.752655
-0.665139 -0.185172 0.723396
-0.597809 -0.136561 0.789921
-0.440522 -0.169788 0.88154
-0.24689 -0.24689 0.937065
-0.0496801 -0.344342 0.937529
0.13183 -0.450623 0.882927
0.289246 -0.558504 0.777438
0.417973 -0.660295 0.623946
0.511825 -0.745574 0.426796
0.562601 -0.802853 0.19725
0.563868 -0.824671 -0.0443993
0.515297 -0.812194 -0.273512
0.423557 -0.774926 -0.469137
0.299786 -0.726126 -0.618765
0.15668 -0.678083 -0.718091
0.0067493 -0.639549 -0.768721
-0.138795 -0.61507 -0.776161
-0.271047 -0.605419 -0.748332
-0.384163 -0.608611 -0.69427
-0.475598 -0.621042 -0.622988
-0.545864 -0.638404 -0.542654
-0.598022 -0.656228 -0.460145
-0.636969 -0.670191 -0.38094
-0.66848 -0.67639 -0.309243
-0.698158 -0.671523 -0.248257
-0.730468 -0.652848 -0.200513
-0.767919 -0.618076 -0.168176
-0.810368 -0.565542 -0.153187
-0.854679 -0.494846 -0.157008
-0.895207 -0.407698 -0.179964
-0.925397 -0.308241 -0.220517
-0.939912 -0.202254 -0.275062
-0.936102 -0.0956192 -0.338483
-0.914236 0.0068639 -0.405123
-0.876939 0.101768 -0.469704
-0.828434 0.186764 -0.528031
-0.773766 0.260383 -0.577483
-0.717959 0.321981 -0.617141
-0.665334 0.371596 -0.647493
-0.61915 0.409618 -0.669975
-0.581399 0.436598 -0.686555
-0.552738 0.453323 -0.69927
-0.532602 0.461087 -0.709742
-0.519396 0.462132 -0.718792
-0.510602 0.46016 -0.726318
-0.50265 0.460536 -0.731608
-0.490139 0.469673 -0.734282
-0.463503 0.493643 -0.735854
-0.404376 0.537447 -0.74002
-0.285643 0.600962 -0.746494
-0.705691 -0.0723433 0.704817
-0.580308 -0.0584897 0.812294
-0.395929 -0.108871 0.911805
-0.190964 -0.190964 0.962843
0.00691418 -0.289216 0.957239
0.184156 -0.396405 0.899416
0.336246 -0.507703 0.793207
0.459817 -0.616284 0.639345
0.548148 -0.711155 0.440218
0.591853 -0.779097 0.206683
0.583944 -0.810834 -0.0394754
0.524831 -0.806728 -0.271554
0.422559 -0.776425 -0.467555
0.289327 -0.733484 -0.615054
0.138383 -0.690251 -0.710214
-0.0174474 -0.655378 -0.755099
-0.166735 -0.633312 -0.755722
-0.300541 -0.624786 -0.720637
-0.413256 -0.627852 -0.659561
-0.502836 -0.639001 -0.582095
-0.570467 -0.654031 -0.4968
-0.61998 -0.668513 -0.410749
-0.657047 -0.678042 -0.329466
-0.688063 -0.678553 -0.257165
-0.718916 -0.666566 -0.197104
-0.75386 -0.639218 -0.151971
-0.794595 -0.594311 -0.124149
-0.839628 -0.530702 -0.11567
-0.884324 -0.449072 -0.127694
-0.922082 -0.352512 -0.159685
-0.946446 -0.246175 -0.208896
-0.953038 -0.135969 -0.270613
-0.940379 -0.0272318 -0.339036
-0.909706 0.0758318 -0.408269
-0.864408 0.170035 -0.473167
-0.809347 0.253043 -0.530025
-0.749997 0.323466 -0.576952
-0.691576 0.380823 -0.613756
-0.638452 0.425177 -0.641563
-0.593702 0.456884 -0.662401
-0.55883 0.476602 -0.678645
-0.533795 0.485473 -0.692372
-0.517228 0.485528 -0.704796
-0.506668 0.480252 -0.715993
-0.498719 0.474884 -0.725096
-0.488802 0.475968 -0.731114
-0.469673 0.490139 -0.734282
-0.427806 0.523185 -0.737062
-0.337971 0.578982 -0.741994
-0.17385 0.649333 -0.740367
-0.783974 -0.0541957 0.618424
-0.706291 0.0254149 0.707465
-0.546376 0.0113609 0.837463
-0.344342 -0.0496801 0.937529
-0.13459 -0.13459 0.981719
0.0603017 -0.233251 0.970545
0.231977 -0.341563 0.91078
0.378678 -0.456584 0.805068
0.497564 -0.57225 0.65189
0.58102 -0.677033 0.45171
0.618255 -0.756002 0.214995
0.601622 -0.798015 -0.0349692
0.532236 -0.802575 -0.269441
0.419476 -0.779398 -0.46538
0.276599 -0.742276 -0.610344
0.117512 -0.703589 -0.700823
-0.0444582 -0.671921 -0.739287
-0.197525 -0.651664 -0.732337
-0.332686 -0.643564 -0.689308
-0.444644 -0.64575 -0.620724
-0.531974 -0.654838 -0.536835
-0.596668 -0.666732 -0.446604
-0.643448 -0.677002 -0.357271
-0.678846 -0.681087 -0.274387
-0.709882 -0.674679 -0.202177
-0.74259 -0.654084 -0.143992
-0.780705 -0.616403 -0.102698
-0.824687 -0.559786 -0.0808112
-0.871365 -0.484042 -0.0801628
-0.914685 -0.39131 -0.101129
-0.947651 -0.286043 -0.141907
-0.964545 -0.173956 -0.198474
-0.962257 -0.0606551 -0.265295
-0.940471 0.0491357 -0.336303
-0.901319 0.15157 -0.405773
-0.848908 0.243526 -0.469095
-0.78861 0.322809 -0.523343
-0.726171 0.388269 -0.567383
-0.66697 0.439469 -0.60168
-0.615308 0.47643 -0.628022
-0.573791 0.499615 -0.64896
-0.543151 0.510013 -0.666988
-0.522414 0.509467 -0.683759
-0.509188 0.50127 -0.699612
-0.500067 0.490578 -0.713629
-0.49088 0.484067 -0.724373
-0.475968 0.488802 -0.731114
-0.445633 0.511134 -0.734951
-0.381159 0.555898 -0.738712
-0.251172 0.622612 -0.741126
-0.808965 0.0745192 0.583115
-0.685305 0.10772 0.720245
-0.501729 0.0744459 0.861815
-0.289216 0.00691418 0.957239
-0.079504 -0.079504 0.993659
0.110245 -0.178302 0.97778
0.275886 -0.287747 0.917109
0.41745 -0.406442 0.812737
0.532143 -0.52904 0.661014
0.611232 -0.643606 0.460615
0.642405 -0.733618 0.221631
0.617315 -0.786096 -0.0312296
0.537773 -0.799592 -0.267307
0.414476 -0.783744 -0.462553
0.261756 -0.752447 -0.604406
0.0943001 -0.718063 -0.68956
-0.0738981 -0.689123 -0.720867
-0.230594 -0.670024 -0.705616
-0.366743 -0.661584 -0.654069
-0.477464 -0.662069 -0.577661
-0.562101 -0.668246 -0.487329
-0.623586 -0.676127 -0.392419
-0.667649 -0.681223 -0.300299
-0.701753 -0.678719 -0.216526
-0.73348 -0.663989 -0.145347
-0.76875 -0.633152 -0.0902323
-0.81032 -0.583477 -0.0541806
-0.856941 -0.513892 -0.0395908
-0.903643 -0.425631 -0.0476158
-0.943425 -0.322437 -0.0773579
-0.969659 -0.209734 -0.125587
-0.977872 -0.0932395 -0.18728
-0.966277 0.0219982 -0.256563
-0.935604 0.131698 -0.327568
-0.888796 0.232131 -0.395168
-0.830545 0.320347 -0.455602
-0.766578 0.394444 -0.506727
-0.702947 0.453294 -0.548078
-0.645138 0.496366 -0.580877
-0.597042 0.523785 -0.607609
-0.560441 0.536327 -0.631078
-0.534976 0.535639 -0.653369
-0.518411 0.524856 -0.675112
-0.507224 0.509116 -0.69536
-0.497329 0.495301 -0.712279
-0.484067 0.49088 -0.724373
-0.460536 0.50265 -0.731608
-0.413631 0.535969 -0.735967
-0.316148 0.594172 -0.739601
-0.135988 0.668572 -0.731108
-0.882949 0.0721345 0.463894
-0.800448 0.173855 0.573636
-0.650451 0.176869 0.738668
-0.450623 0.13183 0.882927
-0.233251 0.0603017 0.970545
-0.0267599 -0.0267599 0.999284
0.156833 -0.125444 0.979626
0.316496 -0.235875 0.9188
0.453328 -0.357956 0.81631
0.564274 -0.487063 0.666607
0.639371 -0.611021 0.466753
0.664746 -0.711917 0.226466
0.631355 -0.774978 -0.0282804
0.541702 -0.797679 -0.265079
0.407779 -0.789377 -0.458912
0.245029 -0.76391 -0.596995
0.0690407 -0.733555 -0.676114
-0.105369 -0.706814 -0.699508
-0.265425 -0.68815 -0.675277
-0.402089 -0.678531 -0.614752
-0.511043 -0.676418 -0.530372
-0.592559 -0.678759 -0.433774
-0.650655 -0.681659 -0.334647
-0.69218 -0.680494 -0.240446
-0.725554 -0.670084 -0.156712
-0.758749 -0.645448 -0.0877277
-0.797137 -0.602661 -0.0370549
-0.841914 -0.539558 -0.00762544
-0.889779 -0.456389 -0.00126568
-0.934263 -0.356136 -0.0178944
-0.968242 -0.243876 -0.0550635
-0.986176 -0.125372 -0.108344
-0.985035 -0.00589294 -0.172256
-0.964236 0.11003 -0.241128
-0.925416 0.218292 -0.309765
-0.87217 0.315367 -0.373983
-0.809607 0.398646 -0.430834
-0.743907 0.466172 -0.478838
-0.68146 0.516596 -0.518402
-0.627482 0.549455 -0.551693
-0.585035 0.565158 -0.581662
-0.554648 0.565083 -0.610776
-0.534381 0.552189 -0.63994
-0.520541 0.531661 -0.668112
-0.508884 0.510717 -0.692968
-0.495301 0.497329 -0.712279
-0.474884 0.498719 -0.725096
-0.438862 0.520571 -0.732397
-0.368177 0.566903 -0.736931
-0.227749 0.636789 -0.736634
-0.886425 0.203899 0.415542
-0.776056 0.252714 0.577817
-0.606995 0.236601 0.758668
-0.396405 0.184156 0.899416
-0.178302 0.110245 0.97778
0.0231746 0.0231746 0.999463
0.200362 -0.0751422 0.976836
0.354387 -0.186308 0.916351
0.486927 -0.311351 0.816065
0.594495 -0.446399 0.668807
0.665869 -0.579243 0.470208
0.685631 -0.690797 0.229586
0.644046 -0.764544 -0.0260213
0.544296 -0.79672 -0.262639
0.399639 -0.796176 -0.454304
0.22667 -0.776522 -0.587907
0.0420126 -0.749881 -0.660237
-0.138528 -0.724742 -0.674951
-0.301591 -0.705712 -0.641103
-0.438237 -0.693991 -0.571248
-0.544876 -0.6883 -0.478909
-0.622903 -0.685791 -0.376408
-0.67756 -0.682631 -0.273729
-0.716912 -0.673962 -0.17836
-0.750281 -0.654141 -0.0958062
-0.785678 -0.61789 -0.0303623
-0.827294 -0.561583 0.0144788
-0.874205 -0.484201 0.0362704
-0.921106 -0.387794 0.0343498
-0.960813 -0.277 0.010432
-0.986996 -0.1576 -0.0316296
-0.99561 -0.0350699 -0.0867838
-0.984991 0.0859056 -0.14971
-0.955584 0.201058 -0.215487
-0.909747 0.306548 -0.27998
-0.851515 0.399278 -0.339851
-0.786565 0.476479 -0.392789
-0.721687 0.535749 -0.438338
-0.663234 0.575724 -0.478187
-0.615669 0.596172 -0.515296
-0.58068 0.598002 -0.552454
-0.556808 0.583875 -0.590809
-0.540149 0.559014 -0.629081
-0.526083 0.531121 -0.664189
-0.510717 0.508884 -0.692968
-0.490578 0.500067 -0.713629
-0.46016 0.510602 -0.726318
-0.406931 0.544742 -0.733255
-0.301897 0.605275 -0.736546
-0.10875 0.682547 -0.722705
-0.946142 0.179645 0.26934
-0.868662 0.296952 0.396542
-0.742313 0.316696 0.590487
-0.558504 0.289246 0.777438
-0.341563 0.231977 0.91078
-0.125444 0.156833 0.979626
0.0702425 0.0702425 0.995054
0.241219 -0.0274557 0.970082
0.390053 -0.139047 0.910233
0.518708 -0.26656 0.812335
0.623194 -0.406932 0.667859
0.691054 -0.548128 0.471169
0.705356 -0.670113 0.231132
0.655673 -0.754652 -0.0243471
0.545823 -0.796574 -0.259898
0.390298 -0.803992 -0.448625
0.206893 -0.790112 -0.576991
0.0134269 -0.766815 -0.641728
-0.173125 -0.742603 -0.646969
-0.338779 -0.722311 -0.602906
-0.474821 -0.70747 -0.52348
-0.578606 -0.697126 -0.423356
-0.652856 -0.688644 -0.315513
-0.704182 -0.678205 -0.210156
-0.741906 -0.660612 -0.114749
-0.776042 -0.629726 -0.0347117
-0.814052 -0.58022 0.0257902
-0.858209 -0.509332 0.0637044
-0.905216 -0.417794 0.0776654
-0.948391 -0.309577 0.0686834
-0.980884 -0.190419 0.0400777
-0.99781 -0.066049 -0.00346816
-0.99665 0.0586828 -0.0569577
-0.976918 0.179464 -0.115864
-0.939874 0.292403 -0.176459
-0.888315 0.39427 -0.235471
-0.826906 0.481712 -0.290137
-0.762225 0.551219 -0.339367
-0.701347 0.600256 -0.384455
-0.65008 0.627614 -0.428365
-0.611485 0.633388 -0.474242
-0.584772 0.619642 -0.523532
-0.565768 0.591438 -0.57455
-0.549209 0.557018 -0.622976
-0.531121 0.526083 -0.664189
-0.509116 0.507224 -0.69536
-0.480252 0.506668 -0.715993
-0.436954 0.528698 -0.727702
-0.359759 0.576532 -0.73361
-0.21072 0.648838 -0.731167
-0.928114 0.304834 0.213729
-0.842592 0.367729 0.393464
-0.702925 0.370833 0.606943
-0.507703 0.336246 0.793207
-0.287747 0.275886 0.917109
-0.0751422 0.200362 0.976836
0.114628 0.114628 0.986773
0.279791 0.0177901 0.959896
0.42388 -0.0938907 0.900839
0.548993 -0.223365 0.805428
0.650639 -0.368449 0.664014
0.715174 -0.517484 0.469826
0.724178 -0.649693 0.231226
0.666498 -0.745146 -0.0231988
0.546522 -0.797093 -0.256821
0.379942 -0.812676 -0.441815
0.185831 -0.804503 -0.56413
-0.0166093 -0.784112 -0.620397
-0.209018 -0.760047 -0.615337
-0.376781 -0.73748 -0.560499
-0.511585 -0.718384 -0.471386
-0.611996 -0.702197 -0.363841
-0.682291 -0.686483 -0.251436
-0.730554 -0.667389 -0.144508
-0.767299 -0.639306 -0.0504063
-0.80278 -0.595721 0.0256862
-0.843106 -0.531753 0.0800684
-0.88807 -0.446179 0.110703
-0.932343 -0.341817 0.117893
-0.968942 -0.224156 0.104426
-0.99226 -0.0992106 0.0746839
-0.99905 0.0278956 0.0334714
-0.988145 0.152792 -0.0149919
-0.960015 0.271686 -0.0675069
-0.916357 0.381587 -0.121163