# vtk DataFile Version 2.0
tmp/0.000.00-10.000.000.001.0034.vtk
ASCII
DATASET UNSTRUCTURED_GRID
POINTS 5100 float
0.5 0 0
1.5 0 0
2.5 0 0
3.5 0 0
4.5 0 0
5.5 0 0
6.5 0 0
7.5 0 0
8.5 0 0
9.5 0 0
10.5 0 0
11.5 0 0
12.5 0 0
13.5 0 0
14.5 0 0
15.5 0 0
16.5 0 0
17.5 0 0
18.5 0 0
19.5 0 0
20.5 0 0
21.5 0 0
22.5 0 0
23.5 0 0
24.5 0 0
25.5 0 0
26.5 0 0
27.5 0 0
28.5 0 0
29.5 0 0
30.5 0 0
31.5 0 0
32.5 0 0
33.5 0 0
34.5 0 0
35.5 0 0
36.5 0 0
37.5 0 0
38.5 0 0
39.5 0 0
40.5 0 0
41.5 0 0
42.5 0 0
43.5 0 0
44.5 0 0
45.5 0 0
46.5 0 0
47.5 0 0
48.5 0 0
49.5 0 0
0 0.5 0
1 0.5 0
2 0.5 0
3 0.5 0
4 0.5 0
5 0.5 0
6 0.5 0
7 0.5 0
8 0.5 0
9 0.5 0
10 0.5 0
11 0.5 0
12 0.5 0
13 0.5 0
14 0.5 0
15 0.5 0
16 0.5 0
17 0.5 0
18 0.5 0
19 0.5 0
20 0.5 0
21 0.5 0
22 0.5 0
23 0.5 0
24 0.5 0
25 0.5 0
26 0.5 0
27 0.5 0
28 0.5 0
29 0.5 0
30 0.5 0
31 0.5 0
32 0.5 0
33 0.5 0
34 0.5 0
35 0.5 0
36 0.5 0
37 0.5 0
38 0.5 0
39 0.5 0
40 0.5 0
41 0.5 0
42 0.5 0
43 0.5 0
44 0.5 0
45 0.5 0
46 0.5 0
47 0.5 0
48 0.5 0
49 0.5 0
50 0.5 0
0.5 1 0
1.5 1 0
2.5 1 0
3.5 1 0
4.5 1 0
5.5 1 0
6.5 1 0
7.5 1 0
8.5 1 0
9.5 1 0
10.5 1 0
11.5 1 0
12.5 1 0
13.5 1 0
14.5 1 0
15.5 1 0
16.5 1 0
17.5 1 0
18.5 1 0
19.5 1 0
20.5 1 0
21.5 1 0
22.5 1 0
23.5 1 0
24.5 1 0
25.5 1 0
26.5 1 0
27.5 1 0
28.5 1 0
29.5 1 0
30.5 1 0
31.5 1 0
32.5 1 0
33.5 1 0
34.5 1 0
35.5 1 0
36.5 1 0
37.5 1 0
38.5 1 0
39.5 1 0
40.5 1 0
41.5 1 0
42.5 1 0
43.5 1 0
44.5 1 0
45.5 1 0
46.5 1 0
47.5 1 0
48.5 1 0
49.5 1 0
0 1.5 0
1 1.5 0
2 1.5 0
3 1.5 0
4 1.5 0
5 1.5 0
6 1.5 0
7 1.5 0
8 1.5 0
9 1.5 0
10 1.5 0
11 1.5 0
12 1.5 0
13 1.5 0
14 1.5 0
15 1.5 0
16 1.5 0
17 1.5 0
18 1.5 0
19 1.5 0
20 1.5 0
21 1.5 0
22 1.5 0
23 1.5 0
24 1.5 0
25 1.5 0
26 1.5 0
27 1.5 0
28 1.5 0
29 1.5 0
30 1.5 0
31 1.5 0
32 1.5 0
33 1.5 0
34 1.5 0
35 1.5 0
36 1.5 0
37 1.5 0
38 1.5 0
39 1.5 0
40 1.5 0
41 1.5 0
42 1.5 0
43 1.5 0
44 1.5 0
45 1.5 0
46 1.5 0
47 1.5 0
48 1.5 0
49 1.5 0
50 1.5 0
0.5 2 0
1.5 2 0
2.5 2 0
3.5 2 0
4.5 2 0
5.5 2 0
6.5 2 0
7.5 2 0
8.5 2 0
9.5 2 0
10.5 2 0
11.5 2 0
12.5 2 0
13.5 2 0
14.5 2 0
15.5 2 0
16.5 2 0
17.5 2 0
18.5 2 0
19.5 2 0
20.5 2 0
21.5 2 0
22.5 2 0
23.5 2 0
24.5 2 0
25.5 2 0
26.5 2 0
27.5 2 0
28.5 2 0
29.5 2 0
30.5 2 0
31.5 2 0
32.5 2 0
33.5 2 0
34.5 2 0
35.5 2 0
36.5 2 0
37.5 2 0
38.5 2 0
39.5 2 0
40.5 2 0
41.5 2 0
42.5 2 0
43.5 2 0
44.5 2 0
45.5 2 0
46.5 2 0
47.5 2 0
48.5 2 0
49.5 2 0
0 2.5 0
1 2.5 0
2 2.5 0
3 2.5 0
4 2.5 0
5 2.5 0
6 2.5 0
7 2.5 0
8 2.5 0
9 2.5 0
10 2.5 0
11 2.5 0
12 2.5 0
13 2.5 0
14 2.5 0
15 2.5 0
16 2.5 0
17 2.5 0
18 2.5 0
19 2.5 0
20 2.5 0
21 2.5 0
22 2.5 0
23 2.5 0
24 2.5 0
25 2.5 0
26 2.5 0
27 2.5 0
28 2.5 0
29 2.5 0
30 2.5 0
31 2.5 0
32 2.5 0
33 2.5 0
34 2.5 0
35 2.5 0
36 2.5 0
37 2.5 0
38 2.5 0
39 2.5 0
40 2.5 0
41 2.5 0
42 2.5 0
43 2.5 0
44 2.5 0
45 2.5 0
46 2.5 0
47 2.5 0
48 2.5 0
49 2.5 0
50 2.5 0
0.5 3 0
1.5 3 0
2.5 3 0
3.5 3 0
4.5 3 0
5.5 3 0
6.5 3 0
7.5 3 0
8.5 3 0
9.5 3 0
10.5 3 0
11.5 3 0
12.5 3 0
13.5 3 0
14.5 3 0
15.5 3 0
16.5 3 0
17.5 3 0
18.5 3 0
19.5 3 0
20.5 3 0
21.5 3 0
22.5 3 0
23.5 3 0
24.5 3 0
25.5 3 0
26.5 3 0
27.5 3 0
28.5 3 0
29.5 3 0
30.5 3 0
31.5 3 0
32.5 3 0
33.5 3 0
34.5 3 0
35.5 3 0
36.5 3 0
37.5 3 0
38.5 3 0
39.5 3 0
40.5 3 0
41.5 3 0
42.5 3 0
43.5 3 0
44.5 3 0
45.5 3 0
46.5 3 0
47.5 3 0
48.5 3 0
49.5 3 0
0 3.5 0
1 3.5 0
2 3.5 0
3 3.5 0
4 3.5 0
5 3.5 0
6 3.5 0
7 3.5 0
8 3.5 0
9 3.5 0
10 3.5 0
11 3.5 0
12 3.5 0
13 3.5 0
14 3.5 0
15 3.5 0
16 3.5 0
17 3.5 0
18 3.5 0
19 3.5 0
20 3.5 0
21 3.5 0
22 3.5 0
23 3.5 0
24 3.5 0
25 3.5 0
26 3.5 0
27 3.5 0
28 3.5 0
29 3.5 0
30 3.5 0
31 3.5 0
32 3.5 0
33 3.5 0
34 3.5 0
35 3.5 0
36 3.5 0
37 3.5 0
38 3.5 0
39 3.5 0
40 3.5 0
41 3.5 0
42 3.5 0
43 3.5 0
44 3.5 0
45 3.5 0
46 3.5 0
47 3.5 0
48 3.5 0
49 3.5 0
50 3.5 0
0.5 4 0
1.5 4 0
2.5 4 0
3.5 4 0
4.5 4 0
5.5 4 0
6.5 4 0
7.5 4 0
8.5 4 0
9.5 4 0
10.5 4 0
11.5 4 0
12.5 4 0
13.5 4 0
14.5 4 0
15.5 4 0
16.5 4 0
17.5 4 0
18.5 4 0
19.5 4 0
20.5 4 0
21.5 4 0
22.5 4 0
23.5 4 0
24.5 4 0
25.5 4 0
26.5 4 0
27.5 4 0
28.5 4 0
29.5 4 0
30.5 4 0
31.5 4 0
32.5 4 0
33.5 4 0
34.5 4 0
35.5 4 0
36.5 4 0
37.5 4 0
38.5 4 0
39.5 4 0
40.5 4 0
41.5 4 0
42.5 4 0
43.5 4 0
44.5 4 0
45.5 4 0
46.5 4 0
47.5 4 0
48.5 4 0
49.5 4 0
0 4.5 0
1 4.5 0
2 4.5 0
3 4.5 0
4 4.5 0
5 4.5 0
6 4.5 0
7 4.5 0
8 4.5 0
9 4.5 0
10 4.5 0
11 4.5 0
12 4.5 0
13 4.5 0
14 4.5 0
15 4.5 0
16 4.5 0
17 4.5 0
18 4.5 0
19 4.5 0
20 4.5 0
21 4.5 0
22 4.5 0
23 4.5 0
24 4.5 0
25 4.5 0
26 4.5 0
27 4.5 0
28 4.5 0
29 4.5 0
30 4.5 0
31 4.5 0
32 4.5 0
33 4.5 0
34 4.5 0
35 4.5 0
36 4.5 0
37 4.5 0
38 4.5 0
39 4.5 0
40 4.5 0
41 4.5 0
42 4.5 0
43 4.5 0
44 4.5 0
45 4.5 0
46 4.5 0
47 4.5 0
48 4.5 0
49 4.5 0
50 4.5 0
0.5 5 0
1.5 5 0
2.5 5 0
3.5 5 0
4.5 5 0
5.5 5 0
6.5 5 0
7.5 5 0
8.5 5 0
9.5 5 0
10.5 5 0
11.5 5 0
12.5 5 0
13.5 5 0
14.5 5 0
15.5 5 0
16.5 5 0
17.5 5 0
18.5 5 0
19.5 5 0
20.5 5 0
21.5 5 0
22.5 5 0
23.5 5 0
24.5 5 0
25.5 5 0
26.5 5 0
27.5 5 0
28.5 5 0
29.5 5 0
30.5 5 0
31.5 5 0
32.5 5 0
33.5 5 0
34.5 5 0
35.5 5 0
36.5 5 0
37.5 5 0
38.5 5 0
39.5 5 0
40.5 5 0
41.5 5 0
42.5 5 0
43.5 5 0
44.5 5 0
45.5 5 0
46.5 5 0
47.5 5 0
48.5 5 0
49.5 5 0
0 5.5 0
1 5.5 0
2 5.5 0
3 5.5 0
4 5.5 0
5 5.5 0
6 5.5 0
7 5.5 0
8 5.5 0
9 5.5 0
10 5.5 0
11 5.5 0
12 5.5 0
13 5.5 0
14 5.5 0
15 5.5 0
16 5.5 0
17 5.5 0
18 5.5 0
19 5.5 0
20 5.5 0
21 5.5 0
22 5.5 0
23 5.5 0
24 5.5 0
25 5.5 0
26 5.5 0
27 5.5 0
28 5.5 0
29 5.5 0
30 5.5 0
31 5.5 0
32 5.5 0
33 5.5 0
34 5.5 0
35 5.5 0
36 5.5 0
37 5.5 0
38 5.5 0
39 5.5 0
40 5.5 0
41 5.5 0
42 5.5 0
43 5.5 0
44 5.5 0
45 5.5 0
46 5.5 0
47 5.5 0
48 5.5 0
49 5.5 0
50 5.5 0
0.5 6 0
1.5 6 0
2.5 6 0
3.5 6 0
4.5 6 0
5.5 6 0
6.5 6 0
7.5 6 0
8.5 6 0
9.5 6 0
10.5 6 0
11.5 6 0
12.5 6 0
13.5 6 0
14.5 6 0
15.5 6 0
16.5 6 0
17.5 6 0
18.5 6 0
19.5 6 0
20.5 6 0
21.5 6 0
22.5 6 0
23.5 6 0
24.5 6 0
25.5 6 0
26.5 6 0
27.5 6 0
28.5 6 0
29.5 6 0
30.5 6 0
31.5 6 0
32.5 6 0
33.5 6 0
34.5 6 0
35.5 6 0
36.5 6 0
37.5 6 0
38.5 6 0
39.5 6 0
40.5 6 0
41.5 6 0
42.5 6 0
43.5 6 0
44.5 6 0
45.5 6 0
46.5 6 0
47.5 6 0
48.5 6 0
49.5 6 0
0 6.5 0
1 6.5 0
2 6.5 0
3 6.5 0
4 6.5 0
5 6.5 0
6 6.5 0
7 6.5 0
8 6.5 0
9 6.5 0
10 6.5 0
11 6.5 0
12 6.5 0
13 6.5 0
14 6.5 0
15 6.5 0
16 6.5 0
17 6.5 0
18 6.5 0
19 6.5 0
20 6.5 0
21 6.5 0
22 6.5 0
23 6.5 0
24 6.5 0
25 6.5 0
26 6.5 0
27 6.5 0
28 6.5 0
29 6.5 0
30 6.5 0
31 6.5 0
32 6.5 0
33 6.5 0
34 6.5 0
35 6.5 0
36 6.5 0
37 6.5 0
38 6.5 0
39 6.5 0
40 6.5 0
41 6.5 0
42 6.5 0
43 6.5 0
44 6.5 0
45 6.5 0
46 6.5 0
47 6.5 0
48 6.5 0
49 6.5 0
50 6.5 0
0.5 7 0
1.5 7 0
2.5 7 0
3.5 7 0
4.5 7 0
5.5 7 0
6.5 7 0
7.5 7 0
8.5 7 0
9.5 7 0
10.5 7 0
11.5 7 0
12.5 7 0
13.5 7 0
14.5 7 0
15.5 7 0
16.5 7 0
17.5 7 0
18.5 7 0
19.5 7 0
20.5 7 0
21.5 7 0
22.5 7 0
23.5 7 0
24.5 7 0
25.5 7 0
26.5 7 0
27.5 7 0
28.5 7 0
29.5 7 0
30.5 7 0
31.5 7 0
32.5 7 0
33.5 7 0
34.5 7 0
35.5 7 0
36.5 7 0
37.5 7 0
38.5 7 0
39.5 7 0
40.5 7 0
41.5 7 0
42.5 7 0
43.5 7 0
44.5 7 0
45.5 7 0
46.5 7 0
47.5 7 0
48.5 7 0
49.5 7 0
0 7.5 0
1 7.5 0
2 7.5 0
3 7.5 0
4 7.5 0
5 7.5 0
6 7.5 0
7 7.5 0
8 7.5 0
9 7.5 0
10 7.5 0
11 7.5 0
12 7.5 0
13 7.5 0
14 7.5 0
15 7.5 0
16 7.5 0
17 7.5 0
18 7.5 0
19 7.5 0
20 7.5 0
21 7.5 0
22 7.5 0
23 7.5 0
24 7.5 0
25 7.5 0
26 7.5 0
27 7.5 0
28 7.5 0
29 7.5 0
30 7.5 0
31 7.5 0
32 7.5 0
33 7.5 0
34 7.5 0
35 7.5 0
36 7.5 0
37 7.5 0
38 7.5 0
39 7.5 0
40 7.5 0
41 7.5 0
42 7.5 0
43 7.5 0
44 7.5 0
45 7.5 0
46 7.5 0
47 7.5 0
48 7.5 0
49 7.5 0
50 7.5 0
0.5 8 0
1.5 8 0
2.5 8 0
3.5 8 0
4.5 8 0
5.5 8 0
6.5 8 0
7.5 8 0
8.5 8 0
9.5 8 0
10.5 8 0
11.5 8 0
12.5 8 0
13.5 8 0
14.5 8 0
15.5 8 0
16.5 8 0
17.5 8 0
18.5 8 0
19.5 8 0
20.5 8 0
21.5 8 0
22.5 8 0
23.5 8 0
24.5 8 0
25.5 8 0
26.5 8 0
27.5 8 0
28.5 8 0
29.5 8 0
30.5 8 0
31.5 8 0
32.5 8 0
33.5 8 0
34.5 8 0
35.5 8 0
36.5 8 0
37.5 8 0
38.5 8 0
39.5 8 0
40.5 8 0
41.5 8 0
42.5 8 0
43.5 8 0
44.5 8 0
45.5 8 0
46.5 8 0
47.5 8 0
48.5 8 0
49.5 8 0
0 8.5 0
1 8.5 0
2 8.5 0
3 8.5 0
4 8.5 0
5 8.5 0
6 8.5 0
7 8.5 0
8 8.5 0
9 8.5 0
10 8.5 0
11 8.5 0
12 8.5 0
13 8.5 0
14 8.5 0
15 8.5 0
16 8.5 0
17 8.5 0
18 8.5 0
19 8.5 0
20 8.5 0
21 8.5 0
22 8.5 0
23 8.5 0
24 8.5 0
25 8.5 0
26 8.5 0
27 8.5 0
28 8.5 0
29 8.5 0
30 8.5 0
31 8.5 0
32 8.5 0
33 8.5 0
34 8.5 0
35 8.5 0
36 8.5 0
37 8.5 0
38 8.5 0
39 8.5 0
40 8.5 0
41 8.5 0
42 8.5 0
43 8.5 0
44 8.5 0
45 8.5 0
46 8.5 0
47 8.5 0
48 8.5 0
49 8.5 0
50 8.5 0
0.5 9 0
1.5 9 0
2.5 9 0
3.5 9 0
4.5 9 0
5.5 9 0
6.5 9 0
7.5 9 0
8.5 9 0
9.5 9 0
10.5 9 0
11.5 9 0
12.5 9 0
13.5 9 0
14.5 9 0
15.5 9 0
16.5 9 0
17.5 9 0
18.5 9 0
19.5 9 0
20.5 9 0
21.5 9 0
22.5 9 0
23.5 9 0
24.5 9 0
25.5 9 0
26.5 9 0
27.5 9 0
28.5 9 0
29.5 9 0
30.5 9 0
31.5 9 0
32.5 9 0
33.5 9 0
34.5 9 0
35.5 9 0
36.5 9 0
37.5 9 0
38.5 9 0
39.5 9 0
40.5 9 0
41.5 9 0
42.5 9 0
43.5 9 0
44.5 9 0
45.5 9 0
46.5 9 0
47.5 9 0
48.5 9 0
49.5 9 0
0 9.5 0
1 9.5 0
2 9.5 0
3 9.5 0
4 9.5 0
5 9.5 0
6 9.5 0
7 9.5 0
8 9.5 0
9 9.5 0
10 9.5 0
11 9.5 0
12 9.5 0
13 9.5 0
14 9.5 0
15 9.5 0
16 9.5 0
17 9.5 0
18 9.5 0
19 9.5 0
20 9.5 0
21 9.5 0
22 9.5 0
23 9.5 0
24 9.5 0
25 9.5 0
26 9.5 0
27 9.5 0
28 9.5 0
29 9.5 0
30 9.5 0
31 9.5 0
32 9.5 0
33 9.5 0
34 9.5 0
35 9.5 0
36 9.5 0
37 9.5 0
38 9.5 0
39 9.5 0
40 9.5 0
41 9.5 0
42 9.5 0
43 9.5 0
44 9.5 0
45 9.5 0
46 9.5 0
47 9.5 0
48 9.5 0
49 9.5 0
50 9.5 0
0.5 10 0
1.5 10 0
2.5 10 0
3.5 10 0
4.5 10 0
5.5 10 0
6.5 10 0
7.5 10 0
8.5 10 0
9.5 10 0
10.5 10 0
11.5 10 0
12.5 10 0
13.5 10 0
14.5 10 0
15.5 10 0
16.5 10 0
17.5 10 0
18.5 10 0
19.5 10 0
20.5 10 0
21.5 10 0
22.5 10 0
23.5 10 0
24.5 10 0
25.5 10 0
26.5 10 0
27.5 10 0
28.5 10 0
29.5 10 0
30.5 10 0
31.5 10 0
32.5 10 0
33.5 10 0
34.5 10 0
35.5 10 0
36.5 10 0
37.5 10 0
38.5 10 0
39.5 10 0
40.5 10 0
41.5 10 0
42.5 10 0
43.5 10 0
44.5 10 0
45.5 10 0
46.5 10 0
47.5 10 0
48.5 10 0
49.5 10 0
0 10.5 0
1 10.5 0
2 10.5 0
3 10.5 0
4 10.5 0
5 10.5 0
6 10.5 0
7 10.5 0
8 10.5 0
9 10.5 0
10 10.5 0
11 10.5 0
12 10.5 0
13 10.5 0
14 10.5 0
15 10.5 0
16 10.5 0
17 10.5 0
18 10.5 0
19 10.5 0
20 10.5 0
21 10.5 0
22 10.5 0
23 10.5 0
24 10.5 0
25 10.5 0
26 10.5 0
27 10.5 0
28 10.5 0
29 10.5 0
30 10.5 0
31 10.5 0
32 10.5 0
33 10.5 0
34 10.5 0
35 10.5 0
36 10.5 0
37 10.5 0
38 10.5 0
39 10.5 0
40 10.5 0
41 10.5 0
42 10.5 0
43 10.5 0
44 10.5 0
45 10.5 0
46 10.5 0
47 10.5 0
48 10.5 0
49 10.5 0
50 10.5 0
[...]
POINT_DATA 5100
VECTORS velocity float
-0.38063 -0.447489 0.809243
-0.24813 -0.517613 0.818846
-0.109393 -0.629837 0.768986
0.0305504 -0.748389 0.662556
0.160901 -0.848356 0.504384
0.269241 -0.91331 0.305574
0.344425 -0.935139 0.0829838
0.378482 -0.914431 -0.143414
0.368172 -0.859663 -0.35416
0.315754 -0.784519 -0.533694
0.228477 -0.704089 -0.672351
0.11692 -0.631373 -0.766615
-0.00717605 -0.575132 -0.818029
-0.132871 -0.539358 -0.831527
-0.251348 -0.52398 -0.8138
-0.356486 -0.526142 -0.77207
-0.444879 -0.541519 -0.71333
-0.515513 -0.565337 -0.643925
-0.569278 -0.593077 -0.56937
-0.608397 -0.620925 -0.494272
-0.635816 -0.646062 -0.422304
-0.654639 -0.666771 -0.35618
-0.667718 -0.682308 -0.297671
-0.677446 -0.69261 -0.247704
-0.685742 -0.697928 -0.206527
-0.69414 -0.698516 -0.17391
-0.70393 -0.694393 -0.149335
-0.716302 -0.685165 -0.132137
-0.732447 -0.669874 -0.121613
-0.753587 -0.646836 -0.117088
-0.780829 -0.613505 -0.117972
-0.814721 -0.566486 -0.123786
-0.854399 -0.502002 -0.134152
-0.896529 -0.417297 -0.148659
-0.934999 -0.313068 -0.166626
-0.9627 -0.195626 -0.18692
-0.975143 -0.0760902 -0.208102
-0.972869 0.0340007 -0.228846
-0.960326 0.127153 -0.248206
-0.942894 0.201078 -0.265553
-0.924799 0.25718 -0.280366
-0.908559 0.298672 -0.29209
-0.895203 0.329435 -0.30014
-0.884596 0.353573 -0.304099
-0.875541 0.375238 -0.304342
-0.865517 0.398404 -0.303569
-0.849745 0.4267 -0.309614
-0.819049 0.464337 -0.336972
-0.762555 0.522004 -0.382127
-0.709398 0.635031 -0.305762
-0.447489 -0.38063 0.809243
-0.334658 -0.427645 0.839717
-0.184433 -0.521674 0.832971
-0.0260347 -0.63818 0.769447
0.12484 -0.748843 0.650884
0.255981 -0.836297 0.484851
0.357328 -0.890141 0.282782
0.420494 -0.905317 0.0598775
0.439519 -0.882848 -0.16554
0.412699 -0.830316 -0.374506
0.343902 -0.760294 -0.551075
0.242089 -0.686909 -0.685237
0.11921 -0.622221 -0.773712
-0.0123854 -0.574014 -0.818752
-0.141952 -0.545396 -0.826071
-0.261395 -0.535696 -0.802934
-0.365506 -0.541825 -0.756856
-0.451737 -0.559539 -0.694874
-0.519756 -0.58434 -0.623218
-0.570948 -0.612036 -0.547203
-0.607886 -0.639076 -0.471229
-0.633797 -0.662759 -0.398814
-0.652059 -0.681316 -0.332607
-0.665842 -0.693792 -0.274422
-0.677922 -0.69975 -0.225328
-0.690651 -0.698911 -0.18581
-0.706019 -0.690804 -0.155972
-0.725709 -0.674477 -0.135745
-0.751064 -0.648276 -0.125064
-0.782861 -0.609721 -0.123972
-0.820769 -0.555655 -0.132614
-0.86252 -0.482962 -0.151021
-0.903216 -0.390243 -0.178635
-0.935857 -0.280154 -0.213739
-0.953947 -0.160657 -0.253326
-0.954887 -0.0429999 -0.293839
-0.941071 0.0628135 -0.332326
-0.917828 0.151298 -0.367015
-0.890623 0.221502 -0.397148
-0.863573 0.275165 -0.422524
-0.839281 0.314976 -0.443168
-0.819196 0.34364 -0.459162
-0.803948 0.363612 -0.470589
-0.793512 0.37723 -0.477532
-0.787122 0.387096 -0.480203
-0.782816 0.396553 -0.479526
-0.776202 0.410218 -0.478781
-0.757794 0.434691 -0.486612
-0.710272 0.479229 -0.515609
-0.634604 0.55694 -0.535812
-0.635031 0.709398 -0.305762
-0.427645 -0.334658 0.839717
-0.296296 -0.413646 0.860875
-0.126786 -0.520953 0.844117
0.0444908 -0.63466 0.771509
0.199612 -0.736193 0.646665
0.328626 -0.814587 0.477967
0.42408 -0.862685 0.275555
0.479047 -0.876197 0.0528571
0.488185 -0.855487 -0.172676
0.450409 -0.807071 -0.381796
0.370641 -0.742587 -0.557844
0.259056 -0.675369 -0.690483
0.128421 -0.616702 -0.776651
-0.00873942 -0.573646 -0.819057
-0.141996 -0.548821 -0.823792
-0.263765 -0.54138 -0.798333
-0.369337 -0.548339 -0.750276
-0.456563 -0.565725 -0.686663
-0.525411 -0.589356 -0.61368
-0.577505 -0.615292 -0.536567
-0.615632 -0.640096 -0.459646
-0.64324 -0.661021 -0.386387
-0.663955 -0.676097 -0.319464
-0.68124 -0.684026 -0.260808
-0.6982 -0.683884 -0.211705
-0.717522 -0.674719 -0.172962
-0.741418 -0.655163 -0.145125
-0.771468 -0.623119 -0.128688
-0.808198 -0.575659 -0.124229
-0.850312 -0.509367 -0.132347
-0.893744 -0.421584 -0.153258
-0.931435 -0.312767 -0.186024
-0.955192 -0.188905 -0.227868
-0.959652 -0.0613147 -0.274425
-0.945268 0.0575616 -0.321177
-0.917343 0.159186 -0.364886
-0.882557 0.24068 -0.403938
-0.846362 0.303277 -0.43783
-0.81229 0.349977 -0.466585
-0.782345 0.383978 -0.490405
-0.757571 0.407984 -0.509544
-0.738433 0.424091 -0.524275
-0.724971 0.433971 -0.534871
-0.716737 0.439301 -0.541574
-0.712469 0.442369 -0.544699
-0.709222 0.446815 -0.545307
-0.700381 0.458342 -0.547165
-0.672173 0.484734 -0.559657
-0.607279 0.532684 -0.589457
-0.55694 0.634604 -0.535812
-0.517613 -0.24813 0.818846
-0.413646 -0.296296 0.860875
-0.257117 -0.392707 0.882991
-0.0750064 -0.503707 0.860612
0.100089 -0.614154 0.782813
0.253872 -0.711872 0.654818
0.378898 -0.788685 0.484162
0.468704 -0.837868 0.27981
0.51645 -0.854559 0.0548464
0.516975 -0.838409 -0.172646
0.470034 -0.795449 -0.38253
0.381769 -0.736923 -0.55785
0.263238 -0.675589 -0.688684
0.12739 -0.62201 -0.772577
-0.0135552 -0.582679 -0.81259
-0.149567 -0.559971 -0.8149
-0.273345 -0.553118 -0.786983
-0.380341 -0.559405 -0.736483
-0.468518 -0.575193 -0.670555
-0.53797 -0.596612 -0.595518
-0.590486 -0.619949 -0.516709
-0.629051 -0.641886 -0.438495
-0.657302 -0.659692 -0.364364
-0.679043 -0.671329 -0.297015
-0.697895 -0.675344 -0.23844
-0.71711 -0.670551 -0.190038
-0.739482 -0.655606 -0.152799
-0.767208 -0.628591 -0.127539
-0.801562 -0.586727 -0.115108
-0.842203 -0.526434 -0.116454
-0.886135 -0.444125 -0.132352
-0.926897 -0.338247 -0.162635
-0.955445 -0.21225 -0.205122
-0.963881 -0.0761803 -0.255205
-0.950035 0.0560486 -0.307071
-0.918455 0.172591 -0.355883
-0.877016 0.267631 -0.39902
-0.832963 0.340976 -0.435784
-0.79119 0.395473 -0.466496
-0.754394 0.434784 -0.491786
-0.723844 0.462209 -0.512261
-0.700045 0.480311 -0.52843
-0.683077 0.490988 -0.540682
-0.672652 0.495865 -0.549234
-0.66791 0.496909 -0.554056
-0.666819 0.497207 -0.555101
-0.664785 0.501683 -0.553511
-0.651854 0.517125 -0.554679
-0.60999 0.549643 -0.570794
-0.532684 0.607279 -0.589457
-0.522004 0.762555 -0.382127
-0.521674 -0.184433 0.832971
-0.392707 -0.257117 0.882991
-0.214846 -0.360694 0.907602
-0.027157 -0.472082 0.881136
0.146843 -0.581235 0.800377
0.297088 -0.679594 0.670739
0.41763 -0.759842 0.498222
0.501909 -0.81455 0.290854
0.542581 -0.837703 0.0621199
0.53462 -0.828122 -0.168506
0.47883 -0.791549 -0.379701
0.382613 -0.739095 -0.554388
0.257676 -0.683165 -0.683292
0.116904 -0.633828 -0.764589
-0.0278136 -0.597226 -0.801591
-0.166677 -0.575672 -0.800512
-0.292451 -0.568558 -0.768905
-0.400599 -0.573438 -0.714625
-0.489162 -0.586967 -0.645129
-0.558416 -0.605529 -0.567015
-0.610414 -0.625603 -0.485813
-0.648429 -0.643985 -0.405985
-0.676347 -0.657998 -0.331049
-0.698154 -0.665612 -0.26371
-0.717579 -0.665325 -0.205968
-0.737921 -0.655827 -0.159259
-0.761929 -0.63555 -0.124663
-0.791597 -0.602275 -0.103151
-0.827712 -0.552919 -0.0957778
-0.86903 -0.483778 -0.103656
-0.911241 -0.391648 -0.127487
-0.946571 -0.276169 -0.166538
-0.965584 -0.142619 -0.217504
-0.961595 -0.00251459 -0.274461
-0.934714 0.130135 -0.330719
-0.891503 0.244591 -0.38131
-0.840867 0.336325 -0.424061
-0.790271 0.40597 -0.458977
-0.744425 0.456723 -0.487069
-0.705722 0.492297 -0.50951
-0.675146 0.515896 -0.527286
-0.652945 0.529968 -0.541107
-0.638933 0.536464 -0.551336
-0.632449 0.537423 -0.557839
-0.631967 0.535766 -0.559975
-0.634139 0.536035 -0.557256
-0.63178 0.544532 -0.55167
-0.610547 0.56771 -0.552211
-0.549643 0.60999 -0.570794
-0.479229 0.710272 -0.515609
-0.629837 -0.109393 0.768986
-0.520953 -0.126786 0.844117
-0.360694 -0.214846 0.907602
-0.17007 -0.320715 0.931782
0.0185286 -0.431721 0.901817
0.189271 -0.54114 0.819356
0.335331 -0.642538 0.688983
0.451406 -0.728747 0.514937
0.530305 -0.791276 0.304399
0.563957 -0.8227 0.0715314
0.547494 -0.820871 -0.162549
0.482807 -0.791248 -0.375265
0.378456 -0.744909 -0.549437
0.246658 -0.694055 -0.676348
0.100273 -0.648451 -0.754623
-0.0489152 -0.614059 -0.787743
-0.191071 -0.59321 -0.782045
-0.318863 -0.585461 -0.74536
-0.427757 -0.588603 -0.685981
-0.515965 -0.599539 -0.611828
-0.584089 -0.614881 -0.529869
-0.634587 -0.631279 -0.445854
-0.671131 -0.645638 -0.364327
-0.697933 -0.655347 -0.288808
-0.71919 -0.658404 -0.221966
-0.738741 -0.653288 -0.165761
-0.759877 -0.638591 -0.121607
-0.785196 -0.612582 -0.0906114
-0.816325 -0.572856 -0.0738237
-0.853368 -0.516258 -0.0723935
-0.894056 -0.43934 -0.0874286
-0.932931 -0.339698 -0.119356
-0.961533 -0.21827 -0.166772
-0.970847 -0.0815389 -0.225404
-0.955699 0.0586929 -0.288436
-0.917936 0.189199 -0.348708
-0.865308 0.300358 -0.401282
-0.807255 0.388415 -0.44438
-0.751379 0.45433 -0.478554
-0.702365 0.501322 -0.505331
-0.662538 0.532965 -0.5263
-0.632787 0.552292 -0.542728
-0.613189 0.561742 -0.555379
-0.603228 0.563628 -0.564304
-0.601632 0.560917 -0.568693
-0.605744 0.558027 -0.567168
-0.610152 0.561086 -0.559371
-0.604025 0.57686 -0.549897
-0.56771 0.610547 -0.552211
-0.484734 0.672173 -0.559657
-0.464337 0.819049 -0.336972
-0.63818 -0.0260347 0.769447
-0.503707 -0.0750064 0.860612
-0.320715 -0.17007 0.931782
-0.124207 -0.2762 0.95304
0.062469 -0.386757 0.920063
0.229036 -0.497366 0.836762
0.370817 -0.602974 0.706341
0.482588 -0.696334 0.531252
0.556256 -0.767808 0.317884
0.58295 -0.808447 0.0811382
0.557957 -0.815037 -0.156199
0.484209 -0.792714 -0.370332
0.371291 -0.752524 -0.543921
0.231898 -0.706542 -0.668597
0.079044 -0.66434 -0.743239
-0.0753013 -0.631787 -0.771475
-0.221043 -0.611276 -0.759923
-0.350683 -0.602526 -0.716927
-0.45976 -0.603554 -0.651417
-0.546805 -0.611506 -0.571895
-0.612905 -0.623225 -0.485734
-0.661057 -0.635534 -0.398874
-0.695427 -0.64544 -0.315893
-0.72061 -0.650384 -0.240256
-0.741037 -0.648382 -0.17454
-0.760637 -0.637876 -0.120607
-0.782632 -0.617349 -0.0797973
-0.809349 -0.584916 -0.0531841
-0.84186 -0.538073 -0.0418226
-0.879385 -0.473802 -0.0468419
-0.918542 -0.389222 -0.0691897
-0.952918 -0.283007 -0.108873
-0.973858 -0.15738 -0.163808
-0.973231 -0.0196277 -0.228989
-0.947442 0.118652 -0.297112
-0.899789 0.245213 -0.360902
-0.838884 0.351476 -0.415618
-0.774524 0.434359 -0.459832
-0.714439 0.495066 -0.494455
-0.663393 0.536764 -0.521339
-0.623752 0.562843 -0.542348
-0.59633 0.57626 -0.558851
-0.580919 0.579727 -0.571358
-0.5764 0.576409 -0.579237
-0.580437 0.570769 -0.580789
-0.588624 0.568949 -0.574299
-0.592635 0.577999 -0.560982
-0.57686 0.604025 -0.549897
-0.517125 0.651854 -0.554679
-0.434691 0.757794 -0.486612
-0.748389 0.0305504 0.662556
-0.63466 0.0444908 0.771509
-0.472082 -0.027157 0.881136
-0.2762 -0.124207 0.95304
-0.0783964 -0.22966 0.970108
0.104756 -0.339843 0.93463
0.266826 -0.452128 0.851108
0.404436 -0.562457 0.721161
0.512071 -0.663451 0.545542
0.58061 -0.74435 0.329901
0.600351 -0.794672 0.0898601
0.566743 -0.810085 -0.150217
0.483679 -0.795326 -0.365391
0.361671 -0.761357 -0.538079
0.213945 -0.720119 -0.660042
0.0538939 -0.681033 -0.730266
-0.106065 -0.649924 -0.752562
-0.25542 -0.629273 -0.734014
-0.386513 -0.618991 -0.683708
-0.495079 -0.617347 -0.611375
-0.580138 -0.621763 -0.526166
-0.64341 -0.629338 -0.43584
-0.688546 -0.637075 -0.346468
-0.720281 -0.642063 -0.262583
-0.743618 -0.64177 -0.187518
-0.763216 -0.634193 -0.123693
-0.783038 -0.617699 -0.0728054
-0.806131 -0.590637 -0.0360575
-0.834381 -0.550999 -0.0144208
-0.868099 -0.496311 -0.00886281
-0.90547 -0.423921 -0.0203715
-0.942054 -0.331772 -0.049609
-0.970821 -0.219701 -0.0961153
-0.983354 -0.0910195 -0.157262
-0.972635 0.0465045 -0.227638
-0.936547 0.181608 -0.29983
-0.879634 0.302911 -0.366727
-0.811252 0.402767 -0.42385
-0.741568 0.478738 -0.469985
-0.67855 0.532274 -0.506215
-0.627125 0.566508 -0.534586
-0.589666 0.584787 -0.557062
-0.566712 0.590306 -0.574784
-0.5574 0.586576 -0.587566
-0.55949 0.578261 -0.593788
-0.569009 0.571677 -0.591113
-0.57919 0.574203 -0.578645
-0.577999 0.592635 -0.560982
-0.544532 0.63178 -0.55167
-0.458342 0.700381 -0.547165
-0.4267 0.849745 -0.309614
-0.748843 0.12484 0.650884
-0.614154 0.100089 0.782813
-0.431721 0.0185286 0.901817
-0.22966 -0.0783964 0.970108
-0.0333921 -0.182739 0.982594
0.145437 -0.292639 0.945098
0.303004 -0.406832 0.861787
0.436617 -0.52204 0.732694
0.540245 -0.630761 0.557024
0.603673 -0.721209 0.33976
0.61639 -0.78142 0.0971877
0.574008 -0.805927 -0.144903
0.481315 -0.798971 -0.36053
0.349696 -0.771312 -0.53178
0.192998 -0.734699 -0.650361
0.0252133 -0.698394 -0.715269
-0.140568 -0.668209 -0.730574
-0.293325 -0.646761 -0.704032
-0.4253 -0.634215 -0.645671
-0.532579 -0.629154 -0.566149
-0.614846 -0.629333 -0.475293
-0.674601 -0.632144 -0.381193
-0.71624 -0.634767 -0.289952
-0.745108 -0.634346 -0.205959
-0.766612 -0.628328 -0.132326
-0.785584 -0.614641 -0.0712315
-0.805918 -0.591535 -0.0241323
-0.83032 -0.55723 0.00798923
-0.860019 -0.509681 0.0243529
-0.894388 -0.446637 0.0241815
-0.930574 -0.366043 0.00673318
-0.963343 -0.266773 -0.028319
-0.98548 -0.149687 -0.0801478
-0.989124 -0.0188646 -0.145869
-0.968366 0.11764 -0.220062
-0.922363 0.248794 -0.295548
-0.85675 0.36385 -0.365502
-0.781675 0.455925 -0.425579
-0.707882 0.523138 -0.474584
-0.643751 0.567207 -0.513674
-0.594342 0.59142 -0.544959
-0.561752 0.599454 -0.570167
-0.545732 0.59534 -0.5897
-0.544097 0.584157 -0.602262
-0.552882 0.572592 -0.605359
-0.566078 0.568472 -0.596989
-0.574203 0.57919 -0.578645
-0.561086 0.610152 -0.559371
-0.501683 0.664785 -0.553511
-0.410218 0.776202 -0.478781
-0.848356 0.160901 0.504384
-0.736193 0.199612 0.646665
-0.581235 0.146843 0.800377
-0.386757 0.062469 0.920063
-0.182739 -0.0333921 0.982594
0.010385 -0.136439 0.990594
0.184613 -0.246135 0.951491
0.337837 -0.362321 0.868671
0.467641 -0.482368 0.740698
0.567331 -0.598699 0.565416
0.62559 -0.698623 0.347222
0.631143 -0.768799 0.102988
0.579778 -0.802612 -0.140257
0.477122 -0.803682 -0.355597
0.335406 -0.782417 -0.524716
0.169202 -0.750264 -0.63912
-0.00668364 -0.716303 -0.697758
-0.178299 -0.68636 -0.705067
-0.334062 -0.663269 -0.669685
-0.466215 -0.647539 -0.602774
-0.571384 -0.638163 -0.516012
-0.650103 -0.633299 -0.41988
-0.705776 -0.630668 -0.322704
-0.743616 -0.62762 -0.230495
-0.769589 -0.621301 -0.147374
-0.789452 -0.609073 -0.076126
-0.808104 -0.588747 -0.0185834
-0.829195 -0.558438 0.0241368
-0.854868 -0.516296 0.051372
-0.885498 -0.460403 0.0626304
-0.91947 -0.388945 0.0574164
-0.953102 -0.300585 0.0352818
-0.980792 -0.195017 -0.00383913
-0.995526 -0.0738028 -0.0590068
-0.990112 0.0584965 -0.1275
-0.959576 0.193547 -0.204336
-0.90412 0.3203 -0.282798
-0.830448 0.428317 -0.356232
-0.749759 0.511179 -0.420186
-0.673719 0.567461 -0.473382
-0.611191 0.59933 -0.516961
-0.567047 0.610673 -0.552754
-0.54241 0.606197 -0.581649
-0.535341 0.591709 -0.602736
-0.541602 0.574601 -0.613597
-0.555284 0.563386 -0.611765
-0.568472 0.566078 -0.596989
-0.568949 0.588624 -0.574299
-0.536035 0.634139 -0.557256
-0.446815 0.709222 -0.545307
-0.398404 0.865517 -0.303569
-0.836297 0.255981 0.484851
-0.711872 0.253872 0.654818
-0.54114 0.189271 0.819356
-0.339843 0.104756 0.93463
-0.136439 0.010385 0.990594
0.052761 -0.0913066 0.994424
0.222434 -0.200859 0.954033
0.371561 -0.319028 0.871873
0.497726 -0.443762 0.745214
0.593494 -0.567474 0.570735
0.646469 -0.676716 0.352325
0.644675 -0.756882 0.107349
0.584094 -0.800191 -0.136119
0.471138 -0.8095 -0.35034
0.31887 -0.794679 -0.516534
0.142698 -0.766752 -0.625883
-0.0415388 -0.734562 -0.677269
-0.218849 -0.704004 -0.675636
-0.377072 -0.678233 -0.630727
-0.508597 -0.658239 -0.555023
-0.610807 -0.643537 -0.461275
-0.685278 -0.63277 -0.36055
-0.736437 -0.624017 -0.261272
-0.770347 -0.614765 -0.1692
-0.793556 -0.602095 -0.0880404
-0.812066 -0.583219 -0.0201185
-0.830658 -0.555792 0.0332068
-0.852508 -0.517831 0.0712807
-0.878968 -0.467553 0.0938603
-0.909467 -0.403366 0.100824
-0.941567 -0.324018 0.0920023
-0.971152 -0.228799 0.0671899
-0.992674 -0.117913 0.0263801
-0.999534 0.00672224 -0.0297681
-0.985141 0.140186 -0.0992201
-0.945228 0.273716 -0.17783
-0.880907 0.395889 -0.259374
-0.800156 0.496051 -0.337171
-0.71571 0.567861 -0.406562
-0.640437 0.610404 -0.466098
-0.583405 0.626788 -0.516504
-0.548385 0.622337 -0.558543
-0.534262 0.603976 -0.591419
-0.536427 0.580364 -0.612718
-0.54853 0.56119 -0.619823
-0.563386 0.555284 -0.611765
-0.571677 0.569009 -0.591113
-0.558027 0.605744 -0.567168
-0.497207 0.666819 -0.555101
-0.396553 0.782816 -0.479526
-0.91331 0.269241 0.305574
-0.814587 0.328626 0.477967
-0.679594 0.297088 0.670739
-0.497366 0.229036 0.836762
-0.292639 0.145437 0.945098
-0.0913066 0.052761 0.994424
0.0937307 -0.0475733 0.99446
0.25908 -0.157012 0.953008
0.404383 -0.277093 0.871604
0.527049 -0.406302 0.746417
0.618871 -0.537126 0.573144
0.666422 -0.655505 0.355239
0.657084 -0.745681 0.110457
0.587041 -0.798679 -0.132272
0.463439 -0.816427 -0.344488
0.30016 -0.808063 -0.506891
0.113587 -0.784028 -0.610245
-0.079178 -0.752883 -0.653375
-0.261918 -0.720657 -0.641913
-0.421915 -0.690987 -0.586963
-0.551906 -0.66551 -0.50249
-0.650291 -0.644405 -0.402323
-0.719887 -0.626869 -0.297989
-0.766227 -0.611362 -0.19782
-0.796217 -0.595452 -0.107129
-0.816886 -0.576068 -0.029028
-0.834297 -0.550217 0.0347828
-0.85286 -0.515409 0.0835677
-0.875021 -0.469672 0.117248
-0.90121 -0.411465 0.136076
-0.930024 -0.339647 0.140337
-0.958553 -0.253449 0.130149
-0.982666 -0.152499 0.105412
-0.997137 -0.0371421 0.0658643
-0.995827 0.0905511 0.0113824
-0.972615 0.225281 -0.0571762
-0.923807 0.35761 -0.136731
-0.851543 0.475133 -0.221639
-0.765592 0.566231 -0.305371
-0.680766 0.624342 -0.383086
-0.611008 0.649455 -0.452634
-0.564443 0.646584 -0.51316
-0.541915 0.624027 -0.562955
-0.538645 0.592561 -0.598943
-0.54744 0.564001 -0.618233
-0.56119 0.54853 -0.619823
-0.572592 0.552882 -0.605359
-0.570769 0.580437 -0.580789
-0.535766 0.631967 -0.559975
-0.442369 0.712469 -0.544699
-0.375238 0.875541 -0.304342
-0.890141 0.357328 0.282782
-0.788685 0.378898 0.484162
-0.642538 0.335331 0.688983
-0.452128 0.266826 0.851108
-0.246135 0.184613 0.951491
-0.0475733 0.0937307 0.99446
0.133395 -0.00526269 0.991049
0.294739 -0.114584 0.948683
0.436478 -0.236458 0.868087
0.555754 -0.369904 0.744519
0.643586 -0.507572 0.57286
0.685564 -0.634933 0.356177
0.668484 -0.735166 0.112515
0.588719 -0.798058 -0.128505
0.454089 -0.824439 -0.337792
0.279302 -0.822492 -0.495476
0.0818774 -0.801897 -0.591825
-0.119538 -0.770878 -0.625666
-0.30731 -0.735715 -0.60356
-0.468239 -0.700739 -0.538253
-0.595686 -0.668456 -0.445336
-0.689369 -0.639851 -0.339649
-0.753536 -0.61474 -0.232976
-0.794868 -0.591957 -0.133311
-0.821037 -0.569076 -0.0452807
-0.839375 -0.542789 0.0288101
-0.855728 -0.509874 0.0880774
-0.873855 -0.467771 0.132545
-0.895294 -0.414669 0.162785
-0.919613 -0.349383 0.179566
-0.944876 -0.271152 0.18354
-0.968077 -0.179422 0.175026
-0.98534 -0.0737951 0.153814
-0.991854 0.0454746 0.118988
-0.981913 0.176216 0.0692429
-0.949852 0.312674 0.00404954
-0.892739 0.444291 -0.0749805
-0.814356 0.556798 -0.163707
-0.727087 0.636832 -0.256494
-0.647947 0.677554 -0.347973
-0.590506 0.680655 -0.433602
-0.559191 0.654904 -0.508336
-0.549673 0.614142 -0.566294
-0.553745 0.574059 -0.603177
-0.564001 0.54744 -0.618233
-0.574601 0.541602 -0.613597
-0.578261 0.55949 -0.593788
-0.560917 0.601632 -0.568693
-0.496909 0.66791 -0.554056
-0.387096 0.787122 -0.480203
-0.935139 0.344425 0.0829838
-0.862685 0.42408 0.275555
-0.759842 0.41763 0.498222
-0.602974 0.370817 0.706341
-0.406832 0.303004 0.861787
-0.200859 0.222434 0.954033
-0.00526269 0.133395 0.991049
0.171913 0.0357309 0.984464
0.329587 -0.0734345 0.941265
0.467986 -0.196953 0.861509
0.583949 -0.334398 0.739717
0.66774 -0.478672 0.570085
0.704008 -0.614909 0.35533
0.678985 -0.725294 0.113701
0.589203 -0.798314 -0.124639
0.443092 -0.833516 -0.330032
0.256211 -0.837878 -0.481992
0.0474449 -0.820106 -0.570241
-0.162677 -0.788049 -0.59373
-0.354913 -0.748427 -0.560262
-0.515744 -0.706564 -0.484537
-0.639521 -0.666088 -0.38385
-0.727618 -0.628935 -0.273884
-0.785877 -0.595578 -0.166389
-0.82209 -0.565196 -0.0687085
-0.844537 -0.535273 0.0155015
-0.860564 -0.502202 0.0849842
-0.87549 -0.462561 0.13984
-0.892191 -0.413832 0.180935
-0.911303 -0.354456 0.209494
-0.93177 -0.283531 0.226749