# vtk DataFile Version 2.0
tmp/0.000.00-10.000.000.001.0042.vtk
ASCII
DATASET UNSTRUCTURED_GRID
POINTS 5100 float
0.5 0 0
1.5 0 0
2.5 0 0
3.5 0 0
4.5 0 0
5.5 0 0
6.5 0 0
7.5 0 0
8.5 0 0
9.5 0 0
10.5 0 0
11.5 0 0
12.5 0 0
13.5 0 0
14.5 0 0
15.5 0 0
16.5 0 0
17.5 0 0
18.5 0 0
19.5 0 0
20.5 0 0
21.5 0 0
22.5 0 0
23.5 0 0
24.5 0 0
25.5 0 0
26.5 0 0
27.5 0 0
28.5 0 0
29.5 0 0
30.5 0 0
31.5 0 0
32.5 0 0
33.5 0 0
34.5 0 0
35.5 0 0
36.5 0 0
37.5 0 0
38.5 0 0
39.5 0 0
40.5 0 0
41.5 0 0
42.5 0 0
43.5 0 0
44.5 0 0
45.5 0 0
46.5 0 0
47.5 0 0
48.5 0 0
49.5 0 0
0 0.5 0
1 0.5 0
2 0.5 0
3 0.5 0
4 0.5 0
5 0.5 0
6 0.5 0
7 0.5 0
8 0.5 0
9 0.5 0
10 0.5 0
11 0.5 0
12 0.5 0
13 0.5 0
14 0.5 0
15 0.5 0
16 0.5 0
17 0.5 0
18 0.5 0
19 0.5 0
20 0.5 0
21 0.5 0
22 0.5 0
23 0.5 0
24 0.5 0
25 0.5 0
26 0.5 0
27 0.5 0
28 0.5 0
29 0.5 0
30 0.5 0
31 0.5 0
32 0.5 0
33 0.5 0
34 0.5 0
35 0.5 0
36 0.5 0
37 0.5 0
38 0.5 0
39 0.5 0
40 0.5 0
41 0.5 0
42 0.5 0
43 0.5 0
44 0.5 0
45 0.5 0
46 0.5 0
47 0.5 0
48 0.5 0
49 0.5 0
50 0.5 0
0.5 1 0
1.5 1 0
2.5 1 0
3.5 1 0
4.5 1 0
5.5 1 0
6.5 1 0
7.5 1 0
8.5 1 0
9.5 1 0
10.5 1 0
11.5 1 0
12.5 1 0
13.5 1 0
14.5 1 0
15.5 1 0
16.5 1 0
17.5 1 0
18.5 1 0
19.5 1 0
20.5 1 0
21.5 1 0
22.5 1 0
23.5 1 0
24.5 1 0
25.5 1 0
26.5 1 0
27.5 1 0
28.5 1 0
29.5 1 0
30.5 1 0
31.5 1 0
32.5 1 0
33.5 1 0
34.5 1 0
35.5 1 0
36.5 1 0
37.5 1 0
38.5 1 0
39.5 1 0
40.5 1 0
41.5 1 0
42.5 1 0
43.5 1 0
44.5 1 0
45.5 1 0
46.5 1 0
47.5 1 0
48.5 1 0
49.5 1 0
0 1.5 0
1 1.5 0
2 1.5 0
3 1.5 0
4 1.5 0
5 1.5 0
6 1.5 0
7 1.5 0
8 1.5 0
9 1.5 0
10 1.5 0
11 1.5 0
12 1.5 0
13 1.5 0
14 1.5 0
15 1.5 0
16 1.5 0
17 1.5 0
18 1.5 0
19 1.5 0
20 1.5 0
21 1.5 0
22 1.5 0
23 1.5 0
24 1.5 0
25 1.5 0
26 1.5 0
27 1.5 0
28 1.5 0
29 1.5 0
30 1.5 0
31 1.5 0
32 1.5 0
33 1.5 0
34 1.5 0
35 1.5 0
36 1.5 0
37 1.5 0
38 1.5 0
39 1.5 0
40 1.5 0
41 1.5 0
42 1.5 0
43 1.5 0
44 1.5 0
45 1.5 0
46 1.5 0
47 1.5 0
48 1.5 0
49 1.5 0
50 1.5 0
0.5 2 0
1.5 2 0
2.5 2 0
3.5 2 0
4.5 2 0
5.5 2 0
6.5 2 0
7.5 2 0
8.5 2 0
9.5 2 0
10.5 2 0
11.5 2 0
12.5 2 0
13.5 2 0
14.5 2 0
15.5 2 0
16.5 2 0
17.5 2 0
18.5 2 0
19.5 2 0
20.5 2 0
21.5 2 0
22.5 2 0
23.5 2 0
24.5 2 0
25.5 2 0
26.5 2 0
27.5 2 0
28.5 2 0
29.5 2 0
30.5 2 0
31.5 2 0
32.5 2 0
33.5 2 0
34.5 2 0
35.5 2 0
36.5 2 0
37.5 2 0
38.5 2 0
39.5 2 0
40.5 2 0
41.5 2 0
42.5 2 0
43.5 2 0
44.5 2 0
45.5 2 0
46.5 2 0
47.5 2 0
48.5 2 0
49.5 2 0
0 2.5 0
1 2.5 0
2 2.5 0
3 2.5 0
4 2.5 0
5 2.5 0
6 2.5 0
7 2.5 0
8 2.5 0
9 2.5 0
10 2.5 0
11 2.5 0
12 2.5 0
13 2.5 0
14 2.5 0
15 2.5 0
16 2.5 0
17 2.5 0
18 2.5 0
19 2.5 0
20 2.5 0
21 2.5 0
22 2.5 0
23 2.5 0
24 2.5 0
25 2.5 0
26 2.5 0
27 2.5 0
28 2.5 0
29 2.5 0
30 2.5 0
31 2.5 0
32 2.5 0
33 2.5 0
34 2.5 0
35 2.5 0
36 2.5 0
37 2.5 0
38 2.5 0
39 2.5 0
40 2.5 0
41 2.5 0
42 2.5 0
43 2.5 0
44 2.5 0
45 2.5 0
46 2.5 0
47 2.5 0
48 2.5 0
49 2.5 0
50 2.5 0
0.5 3 0
1.5 3 0
2.5 3 0
3.5 3 0
4.5 3 0
5.5 3 0
6.5 3 0
7.5 3 0
8.5 3 0
9.5 3 0
10.5 3 0
11.5 3 0
12.5 3 0
13.5 3 0
14.5 3 0
15.5 3 0
16.5 3 0
17.5 3 0
18.5 3 0
19.5 3 0
20.5 3 0
21.5 3 0
22.5 3 0
23.5 3 0
24.5 3 0
25.5 3 0
26.5 3 0
27.5 3 0
28.5 3 0
29.5 3 0
30.5 3 0
31.5 3 0
32.5 3 0
33.5 3 0
34.5 3 0
35.5 3 0
36.5 3 0
37.5 3 0
38.5 3 0
39.5 3 0
40.5 3 0
41.5 3 0
42.5 3 0
43.5 3 0
44.5 3 0
45.5 3 0
46.5 3 0
47.5 3 0
48.5 3 0
49.5 3 0
0 3.5 0
1 3.5 0
2 3.5 0
3 3.5 0
4 3.5 0
5 3.5 0
6 3.5 0
7 3.5 0
8 3.5 0
9 3.5 0
10 3.5 0
11 3.5 0
12 3.5 0
13 3.5 0
14 3.5 0
15 3.5 0
16 3.5 0
17 3.5 0
18 3.5 0
19 3.5 0
20 3.5 0
21 3.5 0
22 3.5 0
23 3.5 0
24 3.5 0
25 3.5 0
26 3.5 0
27 3.5 0
28 3.5 0
29 3.5 0
30 3.5 0
31 3.5 0
32 3.5 0
33 3.5 0
34 3.5 0
35 3.5 0
36 3.5 0
37 3.5 0
38 3.5 0
39 3.5 0
40 3.5 0
41 3.5 0
42 3.5 0
43 3.5 0
44 3.5 0
45 3.5 0
46 3.5 0
47 3.5 0
48 3.5 0
49 3.5 0
50 3.5 0
0.5 4 0
1.5 4 0
2.5 4 0
3.5 4 0
4.5 4 0
5.5 4 0
6.5 4 0
7.5 4 0
8.5 4 0
9.5 4 0
10.5 4 0
11.5 4 0
12.5 4 0
13.5 4 0
14.5 4 0
15.5 4 0
16.5 4 0
17.5 4 0
18.5 4 0
19.5 4 0
20.5 4 0
21.5 4 0
22.5 4 0
23.5 4 0
24.5 4 0
25.5 4 0
26.5 4 0
27.5 4 0
28.5 4 0
29.5 4 0
30.5 4 0
31.5 4 0
32.5 4 0
33.5 4 0
34.5 4 0
35.5 4 0
36.5 4 0
37.5 4 0
38.5 4 0
39.5 4 0
40.5 4 0
41.5 4 0
42.5 4 0
43.5 4 0
44.5 4 0
45.5 4 0
46.5 4 0
47.5 4 0
48.5 4 0
49.5 4 0
0 4.5 0
1 4.5 0
2 4.5 0
3 4.5 0
4 4.5 0
5 4.5 0
6 4.5 0
7 4.5 0
8 4.5 0
9 4.5 0
10 4.5 0
11 4.5 0
12 4.5 0
13 4.5 0
14 4.5 0
15 4.5 0
16 4.5 0
17 4.5 0
18 4.5 0
19 4.5 0
20 4.5 0
21 4.5 0
22 4.5 0
23 4.5 0
24 4.5 0
25 4.5 0
26 4.5 0
27 4.5 0
28 4.5 0
29 4.5 0
30 4.5 0
31 4.5 0
32 4.5 0
33 4.5 0
34 4.5 0
35 4.5 0
36 4.5 0
37 4.5 0
38 4.5 0
39 4.5 0
40 4.5 0
41 4.5 0
42 4.5 0
43 4.5 0
44 4.5 0
45 4.5 0
46 4.5 0
47 4.5 0
48 4.5 0
49 4.5 0
50 4.5 0
0.5 5 0
1.5 5 0
2.5 5 0
3.5 5 0
4.5 5 0
5.5 5 0
6.5 5 0
7.5 5 0
8.5 5 0
9.5 5 0
10.5 5 0
11.5 5 0
12.5 5 0
13.5 5 0
14.5 5 0
15.5 5 0
16.5 5 0
17.5 5 0
18.5 5 0
19.5 5 0
20.5 5 0
21.5 5 0
22.5 5 0
23.5 5 0
24.5 5 0
25.5 5 0
26.5 5 0
27.5 5 0
28.5 5 0
29.5 5 0
30.5 5 0
31.5 5 0
32.5 5 0
33.5 5 0
34.5 5 0
35.5 5 0
36.5 5 0
37.5 5 0
38.5 5 0
39.5 5 0
40.5 5 0
41.5 5 0
42.5 5 0
43.5 5 0
44.5 5 0
45.5 5 0
46.5 5 0
47.5 5 0
48.5 5 0
49.5 5 0
0 5.5 0
1 5.5 0
2 5.5 0
3 5.5 0
4 5.5 0
5 5.5 0
6 5.5 0
7 5.5 0
8 5.5 0
9 5.5 0
10 5.5 0
11 5.5 0
12 5.5 0
13 5.5 0
14 5.5 0
15 5.5 0
16 5.5 0
17 5.5 0
18 5.5 0
19 5.5 0
20 5.5 0
21 5.5 0
22 5.5 0
23 5.5 0
24 5.5 0
25 5.5 0
26 5.5 0
27 5.5 0
28 5.5 0
29 5.5 0
30 5.5 0
31 5.5 0
32 5.5 0
33 5.5 0
34 5.5 0
35 5.5 0
36 5.5 0
37 5.5 0
38 5.5 0
39 5.5 0
40 5.5 0
41 5.5 0
42 5.5 0
43 5.5 0
44 5.5 0
45 5.5 0
46 5.5 0
47 5.5 0
48 5.5 0
49 5.5 0
50 5.5 0
0.5 6 0
1.5 6 0
2.5 6 0
3.5 6 0
4.5 6 0
5.5 6 0
6.5 6 0
7.5 6 0
8.5 6 0
9.5 6 0
10.5 6 0
11.5 6 0
12.5 6 0
13.5 6 0
14.5 6 0
15.5 6 0
16.5 6 0
17.5 6 0
18.5 6 0
19.5 6 0
20.5 6 0
21.5 6 0
22.5 6 0
23.5 6 0
24.5 6 0
25.5 6 0
26.5 6 0
27.5 6 0
28.5 6 0
29.5 6 0
30.5 6 0
31.5 6 0
32.5 6 0
33.5 6 0
34.5 6 0
35.5 6 0
36.5 6 0
37.5 6 0
38.5 6 0
39.5 6 0
40.5 6 0
41.5 6 0
42.5 6 0
43.5 6 0
44.5 6 0
45.5 6 0
46.5 6 0
47.5 6 0
48.5 6 0
49.5 6 0
0 6.5 0
1 6.5 0
2 6.5 0
3 6.5 0
4 6.5 0
5 6.5 0
6 6.5 0
7 6.5 0
8 6.5 0
9 6.5 0
10 6.5 0
11 6.5 0
12 6.5 0
13 6.5 0
14 6.5 0
15 6.5 0
16 6.5 0
17 6.5 0
18 6.5 0
19 6.5 0
20 6.5 0
21 6.5 0
22 6.5 0
23 6.5 0
24 6.5 0
25 6.5 0
26 6.5 0
27 6.5 0
28 6.5 0
29 6.5 0
30 6.5 0
31 6.5 0
32 6.5 0
33 6.5 0
34 6.5 0
35 6.5 0
36 6.5 0
37 6.5 0
38 6.5 0
39 6.5 0
40 6.5 0
41 6.5 0
42 6.5 0
43 6.5 0
44 6.5 0
45 6.5 0
46 6.5 0
47 6.5 0
48 6.5 0
49 6.5 0
50 6.5 0
0.5 7 0
1.5 7 0
2.5 7 0
3.5 7 0
4.5 7 0
5.5 7 0
6.5 7 0
7.5 7 0
8.5 7 0
9.5 7 0
10.5 7 0
11.5 7 0
12.5 7 0
13.5 7 0
14.5 7 0
15.5 7 0
16.5 7 0
17.5 7 0
18.5 7 0
19.5 7 0
20.5 7 0
21.5 7 0
22.5 7 0
23.5 7 0
24.5 7 0
25.5 7 0
26.5 7 0
27.5 7 0
28.5 7 0
29.5 7 0
30.5 7 0
31.5 7 0
32.5 7 0
33.5 7 0
34.5 7 0
35.5 7 0
36.5 7 0
37.5 7 0
38.5 7 0
39.5 7 0
40.5 7 0
41.5 7 0
42.5 7 0
43.5 7 0
44.5 7 0
45.5 7 0
46.5 7 0
47.5 7 0
48.5 7 0
49.5 7 0
0 7.5 0
1 7.5 0
2 7.5 0
3 7.5 0
4 7.5 0
5 7.5 0
6 7.5 0
7 7.5 0
8 7.5 0
9 7.5 0
10 7.5 0
11 7.5 0
12 7.5 0
13 7.5 0
14 7.5 0
15 7.5 0
16 7.5 0
17 7.5 0
18 7.5 0
19 7.5 0
20 7.5 0
21 7.5 0
22 7.5 0
23 7.5 0
24 7.5 0
25 7.5 0
26 7.5 0
27 7.5 0
28 7.5 0
29 7.5 0
30 7.5 0
31 7.5 0
32 7.5 0
33 7.5 0
34 7.5 0
35 7.5 0
36 7.5 0
37 7.5 0
38 7.5 0
39 7.5 0
40 7.5 0
41 7.5 0
42 7.5 0
43 7.5 0
44 7.5 0
45 7.5 0
46 7.5 0
47 7.5 0
48 7.5 0
49 7.5 0
50 7.5 0
0.5 8 0
1.5 8 0
2.5 8 0
3.5 8 0
4.5 8 0
5.5 8 0
6.5 8 0
7.5 8 0
8.5 8 0
9.5 8 0
10.5 8 0
11.5 8 0
12.5 8 0
13.5 8 0
14.5 8 0
15.5 8 0
16.5 8 0
17.5 8 0
18.5 8 0
19.5 8 0
20.5 8 0
21.5 8 0
22.5 8 0
23.5 8 0
24.5 8 0
25.5 8 0
26.5 8 0
27.5 8 0
28.5 8 0
29.5 8 0
30.5 8 0
31.5 8 0
32.5 8 0
33.5 8 0
34.5 8 0
35.5 8 0
36.5 8 0
37.5 8 0
38.5 8 0
39.5 8 0
40.5 8 0
41.5 8 0
42.5 8 0
43.5 8 0
44.5 8 0
45.5 8 0
46.5 8 0
47.5 8 0
48.5 8 0
49.5 8 0
0 8.5 0
1 8.5 0
2 8.5 0
3 8.5 0
4 8.5 0
5 8.5 0
6 8.5 0
7 8.5 0
8 8.5 0
9 8.5 0
10 8.5 0
11 8.5 0
12 8.5 0
13 8.5 0
14 8.5 0
15 8.5 0
16 8.5 0
17 8.5 0
18 8.5 0
19 8.5 0
20 8.5 0
21 8.5 0
22 8.5 0
23 8.5 0
24 8.5 0
25 8.5 0
26 8.5 0
27 8.5 0
28 8.5 0
29 8.5 0
30 8.5 0
31 8.5 0
32 8.5 0
33 8.5 0
34 8.5 0
35 8.5 0
36 8.5 0
37 8.5 0
38 8.5 0
39 8.5 0
40 8.5 0
41 8.5 0
42 8.5 0
43 8.5 0
44 8.5 0
45 8.5 0
46 8.5 0
47 8.5 0
48 8.5 0
49 8.5 0
50 8.5 0
0.5 9 0
1.5 9 0
2.5 9 0
3.5 9 0
4.5 9 0
5.5 9 0
6.5 9 0
7.5 9 0
8.5 9 0
9.5 9 0
10.5 9 0
11.5 9 0
12.5 9 0
13.5 9 0
14.5 9 0
15.5 9 0
16.5 9 0
17.5 9 0
18.5 9 0
19.5 9 0
20.5 9 0
21.5 9 0
22.5 9 0
23.5 9 0
24.5 9 0
25.5 9 0
26.5 9 0
27.5 9 0
28.5 9 0
29.5 9 0
30.5 9 0
31.5 9 0
32.5 9 0
33.5 9 0
34.5 9 0
35.5 9 0
36.5 9 0
37.5 9 0
38.5 9 0
39.5 9 0
40.5 9 0
41.5 9 0
42.5 9 0
43.5 9 0
44.5 9 0
45.5 9 0
46.5 9 0
47.5 9 0
48.5 9 0
49.5 9 0
0 9.5 0
1 9.5 0
2 9.5 0
3 9.5 0
4 9.5 0
5 9.5 0
6 9.5 0
7 9.5 0
8 9.5 0
9 9.5 0
10 9.5 0
11 9.5 0
12 9.5 0
13 9.5 0
14 9.5 0
15 9.5 0
16 9.5 0
17 9.5 0
18 9.5 0
19 9.5 0
20 9.5 0
21 9.5 0
22 9.5 0
23 9.5 0
24 9.5 0
25 9.5 0
26 9.5 0
27 9.5 0
28 9.5 0
29 9.5 0
30 9.5 0
31 9.5 0
32 9.5 0
33 9.5 0
34 9.5 0
35 9.5 0
36 9.5 0
37 9.5 0
38 9.5 0
39 9.5 0
40 9.5 0
41 9.5 0
42 9.5 0
43 9.5 0
44 9.5 0
45 9.5 0
46 9.5 0
47 9.5 0
48 9.5 0
49 9.5 0
50 9.5 0
0.5 10 0
1.5 10 0
2.5 10 0
3.5 10 0
4.5 10 0
5.5 10 0
6.5 10 0
7.5 10 0
8.5 10 0
9.5 10 0
10.5 10 0
11.5 10 0
12.5 10 0
13.5 10 0
14.5 10 0
15.5 10 0
16.5 10 0
17.5 10 0
18.5 10 0
19.5 10 0
20.5 10 0
21.5 10 0
22.5 10 0
23.5 10 0
24.5 10 0
25.5 10 0
26.5 10 0
27.5 10 0
28.5 10 0
29.5 10 0
30.5 10 0
31.5 10 0
32.5 10 0
33.5 10 0
34.5 10 0
35.5 10 0
36.5 10 0
37.5 10 0
38.5 10 0
39.5 10 0
40.5 10 0
41.5 10 0
42.5 10 0
43.5 10 0
44.5 10 0
45.5 10 0
46.5 10 0
47.5 10 0
48.5 10 0
49.5 10 0
0 10.5 0
1 10.5 0
2 10.5 0
3 10.5 0
4 10.5 0
5 10.5 0
6 10.5 0
7 10.5 0
8 10.5 0
9 10.5 0
10 10.5 0
11 10.5 0
12 10.5 0
13 10.5 0
14 10.5 0
15 10.5 0
16 10.5 0
17 10.5 0
18 10.5 0
19 10.5 0
20 10.5 0
21 10.5 0
22 10.5 0
23 10.5 0
24 10.5 0
25 10.5 0
26 10.5 0
27 10.5 0
28 10.5 0
29 10.5 0
30 10.5 0
31 10.5 0
32 10.5 0
33 10.5 0
34 10.5 0
35 10.5 0
36 10.5 0
37 10.5 0
38 10.5 0
39 10.5 0
40 10.5 0
41 10.5 0
42 10.5 0
43 10.5 0
44 10.5 0
45 10.5 0
46 10.5 0
47 10.5 0
48 10.5 0
49 10.5 0
50 10.5 0
[...]
POINT_DATA 5100
VECTORS velocity float
-0.14485 -0.170994 0.974566
-0.23722 -0.233184 0.943054
-0.162183 -0.24601 0.955602
-0.0077324 -0.349066 0.937066
0.157655 -0.540275 0.826588
0.274126 -0.758437 0.591294
0.302923 -0.913589 0.271281
0.254779 -0.966368 -0.0349248
0.169787 -0.94897 -0.26576
0.0773608 -0.904811 -0.418727
-0.00986177 -0.858467 -0.512774
-0.087739 -0.819305 -0.566605
-0.155449 -0.788732 -0.594758
-0.214003 -0.764017 -0.608671
-0.266342 -0.739802 -0.617864
-0.317729 -0.708452 -0.630194
-0.375611 -0.65979 -0.650841
-0.447725 -0.581197 -0.679524
-0.536844 -0.461261 -0.706425
-0.633807 -0.301177 -0.712448
-0.719736 -0.125684 -0.682777
-0.782116 0.029773 -0.622422
-0.822839 0.145361 -0.549368
-0.84982 0.221464 -0.478287
-0.869252 0.267168 -0.41596
-0.88435 0.291907 -0.364301
-0.896459 0.302992 -0.323353
-0.90603 0.305644 -0.292729
-0.913136 0.303548 -0.272104
-0.917683 0.29931 -0.261287
-0.91949 0.294751 -0.260114
-0.91832 0.291071 -0.268265
-0.913915 0.288964 -0.285059
-0.906066 0.288741 -0.309312
-0.894709 0.290431 -0.339329
-0.880048 0.293877 -0.37303
-0.862614 0.298799 -0.408187
-0.843258 0.304857 -0.442695
-0.823039 0.311722 -0.474801
-0.803053 0.319158 -0.503233
-0.78424 0.327088 -0.527239
-0.767232 0.335608 -0.546554
-0.752232 0.344958 -0.561383
-0.738931 0.355527 -0.572347
-0.726456 0.367919 -0.580429
-0.713274 0.38303 -0.586965
-0.696851 0.402042 -0.593936
-0.672497 0.426146 -0.605101
-0.630157 0.455322 -0.628955
-0.549239 0.482204 -0.682507
-0.170994 -0.14485 0.974566
-0.332615 -0.334415 0.881779
-0.263407 -0.367765 0.891833
-0.0683203 -0.461606 0.88445
0.157631 -0.601105 0.78347
0.336646 -0.737848 0.585021
0.437205 -0.838274 0.325805
0.45981 -0.886599 0.0501806
0.419794 -0.88475 -0.202459
0.338333 -0.848352 -0.407223
0.235358 -0.796749 -0.556595
0.125759 -0.745023 -0.655077
0.0191626 -0.701533 -0.712379
-0.0789628 -0.668742 -0.739289
-0.166428 -0.644847 -0.745972
-0.243924 -0.625162 -0.7414
-0.314824 -0.603 -0.732991
-0.384777 -0.570071 -0.725924
-0.46045 -0.516728 -0.721788
-0.546477 -0.433358 -0.716634
-0.640457 -0.315324 -0.700275
-0.730251 -0.171354 -0.661341
-0.801127 -0.0252007 -0.597963
-0.847771 0.0985682 -0.521122
-0.87532 0.189143 -0.445016
-0.891531 0.248735 -0.378553
-0.901835 0.284738 -0.324989
-0.90894 0.304636 -0.284649
-0.913865 0.314403 -0.256908
-0.916794 0.31843 -0.241022
-0.917541 0.319813 -0.236302
-0.915769 0.32063 -0.242
-0.911101 0.322156 -0.25712
-0.903217 0.325046 -0.280258
-0.891958 0.329504 -0.309577
-0.877443 0.335417 -0.342911
-0.86014 0.342476 -0.377981
-0.840852 0.35028 -0.41264
-0.820615 0.358436 -0.4451
-0.800519 0.366661 -0.474055
-0.781521 0.374843 -0.498716
-0.764287 0.383035 -0.518797
-0.749078 0.391408 -0.534492
-0.735667 0.400248 -0.546439
-0.723283 0.410042 -0.555632
-0.710548 0.421633 -0.563335
-0.695245 0.436365 -0.571157
-0.673514 0.456059 -0.581713
-0.637749 0.482253 -0.60059
-0.574164 0.513726 -0.637512
-0.482204 0.549239 -0.682507
-0.334415 -0.332615 0.881779
-0.327928 -0.381238 0.864361
-0.128576 -0.442755 0.887376
0.131027 -0.542226 0.829953
0.351119 -0.642969 0.680666
0.49815 -0.728069 0.470916
0.573218 -0.787835 0.225248
0.580607 -0.813495 -0.0334852
0.527472 -0.803206 -0.276829
0.429061 -0.766031 -0.478647
0.305841 -0.717409 -0.625928
0.176274 -0.671081 -0.720123
0.0526985 -0.634671 -0.770984
-0.0586951 -0.609754 -0.790415
-0.156353 -0.593728 -0.78933
-0.242025 -0.581547 -0.776677
-0.31991 -0.566738 -0.759254
-0.395974 -0.541752 -0.741424
-0.476759 -0.498041 -0.724331
-0.566774 -0.426897 -0.704646
-0.664061 -0.323083 -0.67427
-0.757189 -0.19199 -0.624343
-0.830873 -0.0532123 -0.553913
-0.87813 0.0695002 -0.473347
-0.903542 0.162925 -0.396317
-0.915767 0.226855 -0.331523
-0.921371 0.267569 -0.281927
-0.923756 0.292319 -0.247435
-0.924197 0.307161 -0.226962
-0.92287 0.31658 -0.219288
-0.919469 0.323673 -0.223189
-0.913518 0.330411 -0.237306
-0.904564 0.337897 -0.259979
-0.892328 0.34658 -0.289194
-0.876835 0.356439 -0.322665
-0.858501 0.36714 -0.358028
-0.838127 0.378194 -0.393081
-0.816776 0.389103 -0.425999
-0.795586 0.399496 -0.455463
-0.775561 0.409203 -0.480685
-0.757417 0.418244 -0.50139
-0.741465 0.426749 -0.517798
-0.727532 0.434932 -0.530595
-0.714903 0.443182 -0.540836
-0.702277 0.452246 -0.5498
-0.687629 0.46345 -0.558909
-0.667681 0.478844 -0.570009
-0.636603 0.500868 -0.586403
-0.585391 0.531389 -0.612326
-0.513726 0.574164 -0.637512
-0.233184 -0.23722 0.943054
-0.381238 -0.327928 0.864361
-0.219228 -0.336678 0.915744
0.0672854 -0.393334 0.91693
0.3319 -0.469911 0.81794
0.519649 -0.550249 0.653599
0.637794 -0.628095 0.445775
0.692137 -0.693357 0.200506
0.677764 -0.732267 -0.066494
0.595478 -0.736486 -0.320928
0.464713 -0.711983 -0.526424
0.315204 -0.674948 -0.667152
0.170273 -0.639778 -0.74946
0.0409979 -0.613172 -0.788885
-0.0704917 -0.595344 -0.800373
-0.16672 -0.582899 -0.795257
-0.252423 -0.570686 -0.781409
-0.333523 -0.552502 -0.763874
-0.416498 -0.521105 -0.74497
-0.507065 -0.468268 -0.723609
-0.607095 -0.386285 -0.69442
-0.710193 -0.272979 -0.648929
-0.801351 -0.13883 -0.581862
-0.866724 -0.00625321 -0.498749
-0.904456 0.104152 -0.413657
-0.922479 0.184728 -0.338981
-0.92973 0.238647 -0.280446
-0.931868 0.273042 -0.238892
-0.931462 0.294854 -0.213164
-0.92926 0.309522 -0.201676
-0.925136 0.320896 -0.202853
-0.918621 0.331477 -0.215076
-0.909189 0.342694 -0.236508
-0.896457 0.355154 -0.26501
-0.880355 0.368861 -0.298189
-0.861237 0.383399 -0.33358
-0.839891 0.398133 -0.368882
-0.81742 0.412395 -0.402187
-0.795038 0.425663 -0.432119
-0.773827 0.437668 -0.457862
-0.754574 0.448378 -0.479139
-0.737653 0.457891 -0.496189
-0.722944 0.466377 -0.509749
-0.709778 0.47415 -0.520958
-0.696907 0.481847 -0.531173
-0.682432 0.490657 -0.541795
-0.663505 0.502524 -0.554283
-0.635553 0.520042 -0.570639
-0.592005 0.545911 -0.592884
-0.531389 0.585391 -0.612326
-0.455322 0.630157 -0.628955
-0.367765 -0.263407 0.891833
-0.336678 -0.219228 0.915744
-0.0539168 -0.217206 0.974636
0.253944 -0.261374 0.931234
0.480671 -0.327999 0.813248
0.634383 -0.408103 0.656514
0.735798 -0.497359 0.459604
0.781516 -0.586495 0.212734
0.750916 -0.656379 -0.0727364
0.637065 -0.687464 -0.348627
0.471526 -0.680595 -0.560762
0.299699 -0.655177 -0.693486
0.14732 -0.628345 -0.763859
0.0193841 -0.606828 -0.794597
-0.0884974 -0.590341 -0.802288
-0.183126 -0.575469 -0.797057
-0.27138 -0.557372 -0.784659
-0.359761 -0.530094 -0.767836
-0.453965 -0.486462 -0.746506
-0.557154 -0.418672 -0.717143
-0.666287 -0.321367 -0.672893
-0.769259 -0.198161 -0.607431
-0.849997 -0.0659335 -0.522645
-0.900794 0.0530317 -0.430996
-0.926548 0.145154 -0.347045
-0.937091 0.209427 -0.279287
-0.940085 0.251751 -0.229915
-0.939554 0.279359 -0.197983
-0.936993 0.298393 -0.181674
-0.932584 0.313366 -0.179134
-0.925931 0.32727 -0.188537
-0.916466 0.341847 -0.20792
-0.903709 0.357856 -0.235053
-0.887468 0.375319 -0.267461
-0.867997 0.393737 -0.302576
-0.84603 0.412318 -0.337976
-0.822684 0.430212 -0.37163
-0.799241 0.446723 -0.40206
-0.776882 0.461461 -0.428379
-0.756486 0.474329 -0.450267
-0.738522 0.485392 -0.467954
-0.72295 0.494786 -0.482215
-0.709167 0.502771 -0.494272
-0.695981 0.509887 -0.505594
-0.681594 0.517173 -0.517651
-0.663447 0.526365 -0.53177
-0.637808 0.539898 -0.549282
-0.599578 0.560502 -0.571265
-0.545911 0.592005 -0.592884
-0.482253 0.637749 -0.60059
-0.24601 -0.162183 0.955602
-0.442755 -0.128576 0.887376
-0.217206 -0.0539168 0.974636
0.119833 -0.0567809 0.991169
0.386312 -0.10507 0.916364
0.565519 -0.174201 0.806128
0.69471 -0.25899 0.671046
0.791271 -0.361789 0.49295
0.841398 -0.480149 0.248005
0.80435 -0.591059 -0.0605795
0.660838 -0.655749 -0.365085
0.463065 -0.665665 -0.585202
0.276049 -0.647558 -0.710257
0.122427 -0.62404 -0.771742
-0.00213508 -0.602811 -0.797881
-0.108092 -0.583666 -0.804767
-0.204887 -0.563412 -0.800368
-0.300012 -0.537374 -0.788176
-0.399305 -0.499516 -0.768791
-0.506451 -0.442588 -0.740016
-0.620592 -0.359834 -0.696696
-0.732914 -0.24989 -0.632766
-0.827733 -0.123016 -0.547471
-0.892726 0.000408631 -0.450601
-0.928221 0.102453 -0.357644
-0.943542 0.177023 -0.279985
-0.948158 0.227648 -0.22175
-0.947832 0.261326 -0.182544
-0.945072 0.284788 -0.160423
-0.940506 0.303249 -0.153261
-0.933884 0.32027 -0.159021
-0.924627 0.33797 -0.175615
-0.912158 0.357309 -0.200745
-0.896149 0.378356 -0.231871
-0.876715 0.400543 -0.266339
-0.854493 0.422933 -0.30161
-0.830575 0.444493 -0.335515
-0.806285 0.464353 -0.366442
-0.782893 0.481994 -0.393397
-0.761387 0.497249 -0.415973
-0.742352 0.510147 -0.434354
-0.725868 0.520791 -0.449324
-0.711434 0.529387 -0.462182
-0.697941 0.536385 -0.47452
-0.683682 0.542677 -0.487935
-0.666306 0.549778 -0.503767
-0.642622 0.559881 -0.523039
-0.608497 0.575545 -0.546333
-0.560502 0.599578 -0.571265
-0.500868 0.636603 -0.586403
-0.426146 0.672497 -0.605101
-0.461606 -0.0683203 0.88445
-0.393334 0.0672854 0.91693
-0.0567809 0.119833 0.991169
0.253344 0.09005 0.963176
0.459319 0.0301121 0.887761
0.600264 -0.0411374 0.798743
0.713213 -0.126666 0.689408
0.811123 -0.237637 0.534424
0.874967 -0.382511 0.296848
0.842059 -0.538204 -0.0356861
0.673054 -0.638339 -0.373525
0.448225 -0.660652 -0.60219
0.252539 -0.644929 -0.721311
0.100133 -0.621004 -0.777385
-0.0226909 -0.597545 -0.801515
-0.13038 -0.574353 -0.808159
-0.233309 -0.548212 -0.803138
-0.33849 -0.514228 -0.788032
-0.450254 -0.465979 -0.761666
-0.569279 -0.396313 -0.720318
-0.689753 -0.300543 -0.658722
-0.797946 -0.182524 -0.574427
-0.878587 -0.0580339 -0.474042
-0.926463 0.052931 -0.372644
-0.948618 0.138697 -0.284408
-0.955866 0.199024 -0.216126
-0.956069 0.239897 -0.168465
-0.953136 0.268458 -0.139504
-0.948372 0.290698 -0.126829
-0.941771 0.310879 -0.12815
-0.932784 0.331614 -0.141231
-0.920751 0.354145 -0.163701
-0.905205 0.378639 -0.192969
-0.8861 0.404484 -0.226318
-0.863944 0.430608 -0.261108
-0.83976 0.455802 -0.295038
-0.814882 0.479019 -0.326354
-0.790644 0.499615 -0.353929
-0.768135 0.51736 -0.377236
-0.748064 0.532252 -0.396369
-0.730656 0.544359 -0.412087
-0.715549 0.553835 -0.425742
-0.701755 0.561045 -0.439055
-0.687672 0.566739 -0.453778
-0.671101 0.572229 -0.471357
-0.649201 0.579453 -0.492719
-0.618476 0.590761 -0.518158
-0.575545 0.608497 -0.546333
-0.520042 0.635553 -0.570639
-0.456059 0.673514 -0.581713
-0.349066 -0.0077324 0.937066
-0.542226 0.131027 0.829953
-0.261374 0.253944 0.931234
0.09005 0.253344 0.963176
0.335882 0.19639 0.921202
0.49122 0.130618 0.861186
0.604589 0.0616408 0.794149
0.705656 -0.0204659 0.708259
0.806093 -0.133814 0.576462
0.887571 -0.298726 0.350686
0.867589 -0.497269 -0.00362794
0.67864 -0.630565 -0.37661
0.432816 -0.660163 -0.613885
0.232402 -0.643656 -0.729175
0.0805548 -0.61781 -0.78219
-0.0436532 -0.591608 -0.805043
-0.156658 -0.564525 -0.810414
-0.268701 -0.532957 -0.802345
-0.385693 -0.491453 -0.780842
-0.509771 -0.433134 -0.743322
-0.637691 -0.351485 -0.685426
-0.758483 -0.245116 -0.603839
-0.855943 -0.123547 -0.502093
-0.919315 -0.00567515 -0.393481
-0.951277 0.0919157 -0.294319
-0.962839 0.163756 -0.214768
-0.964179 0.213559 -0.157325
-0.961143 0.248422 -0.120379
-0.956064 0.275122 -0.101241
-0.949351 0.298773 -0.0972982
-0.940558 0.322632 -0.106115
-0.928968 0.348335 -0.125224
-0.913979 0.376221 -0.15199
-0.895378 0.405672 -0.183651
-0.873523 0.435496 -0.217487
-0.84934 0.464305 -0.251082
-0.824138 0.49088 -0.282548
-0.799287 0.514449 -0.310615
-0.775948 0.534733 -0.334612
-0.754944 0.551712 -0.354505
-0.736655 0.565428 -0.370986
-0.720887 0.575986 -0.385438
-0.706801 0.583675 -0.399694
-0.692927 0.58912 -0.415679
-0.677196 0.593447 -0.435002
-0.656991 0.598355 -0.458622
-0.629226 0.605982 -0.486683
-0.590761 0.618476 -0.518158
-0.539898 0.637808 -0.549282
-0.478844 0.667681 -0.570009
-0.402042 0.696851 -0.593936
-0.601105 0.157631 0.78347
-0.469911 0.3319 0.81794
-0.10507 0.386312 0.916364
0.19639 0.335882 0.921202
0.381251 0.265609 0.885494
0.500085 0.200681 0.842403
0.593508 0.136581 0.793154
0.685063 0.0596249 0.72604
0.78715 -0.0525581 0.614518
0.885935 -0.230612 0.402415
0.884285 -0.465957 0.0303902
0.681375 -0.627743 -0.376386
0.419883 -0.661055 -0.621856
0.21597 -0.642832 -0.734931
0.0624576 -0.615162 -0.785923
-0.0663263 -0.586709 -0.807077
-0.187528 -0.556328 -0.809526
-0.310709 -0.519742 -0.795819
-0.440194 -0.470767 -0.764596
-0.575125 -0.402273 -0.712326
-0.707543 -0.309314 -0.635381
-0.822198 -0.195003 -0.534756
-0.904054 -0.0739491 -0.420972
-0.949707 0.0347598 -0.311206
-0.968287 0.119665 -0.219318
-0.971974 0.180495 -0.150627
-0.96913 0.223362 -0.104384
-0.963647 0.255626 -0.0777138
-0.956629 0.283355 -0.0676127
-0.947849 0.310626 -0.071366
-0.93659 0.339616 -0.0863692
-0.922129 0.370936 -0.109934
-0.90409 0.404014 -0.139261
-0.882669 0.437558 -0.171576
-0.858677 0.470008 -0.204366
-0.833378 0.499962 -0.235624
-0.808148 0.526527 -0.263943
-0.784188 0.549384 -0.288491
-0.762409 0.568512 -0.309074
-0.743338 0.583941 -0.326284
-0.72696 0.595741 -0.341499
-0.712614 0.604137 -0.35665
-0.698982 0.60965 -0.373833
-0.684124 0.613242 -0.394853
-0.665572 0.616402 -0.420788
-0.640491 0.621053 -0.451734
-0.605982 0.629226 -0.486683
-0.559881 0.642622 -0.523039
-0.502524 0.663505 -0.554283
-0.436365 0.695245 -0.571157
-0.540275 0.157655 0.826588
-0.642969 0.351119 0.680666
-0.327999 0.480671 0.813248
0.0301121 0.459319 0.887761
0.265609 0.381251 0.885494
0.404257 0.308945 0.860889
0.497378 0.248297 0.831243
0.576148 0.189665 0.795035
0.66008 0.117881 0.741889
0.762917 0.00840727 0.646442
0.876601 -0.177128 0.447434
0.895155 -0.441359 0.0624494
0.683715 -0.626561 -0.374106
0.410316 -0.662281 -0.626917
0.202328 -0.642957 -0.738695
0.044535 -0.614272 -0.787836
-0.0915952 -0.584252 -0.806387
-0.223246 -0.550954 -0.804121
-0.358921 -0.509253 -0.7822
-0.500707 -0.452237 -0.738088
-0.643755 -0.373084 -0.668123
-0.775097 -0.269702 -0.57139
-0.877558 -0.150512 -0.455234
-0.941214 -0.0334795 -0.336147
-0.970714 0.0649066 -0.231304
-0.978918 0.138787 -0.149859
-0.977045 0.191752 -0.0928083
-0.971232 0.231123 -0.0573666
-0.963719 0.263888 -0.0401027
-0.954714 0.295099 -0.0379259
-0.943579 0.327647 -0.0480284
-0.929509 0.362543 -0.0676411
-0.911977 0.399342 -0.0939341
-0.891016 0.436683 -0.124093
-0.867311 0.472844 -0.15553
-0.842069 0.506235 -0.186133
-0.816656 0.535835 -0.214368
-0.792278 0.561302 -0.23924
-0.769902 0.582632 -0.260369
-0.750183 0.599855 -0.278208
-0.733284 0.613023 -0.294105
-0.718736 0.622319 -0.310063
-0.705393 0.628181 -0.328344
-0.69145 0.631442 -0.350968
-0.674549 0.633403 -0.379189
-0.651994 0.635785 -0.413135
-0.621053 0.640491 -0.451734
-0.579453 0.649201 -0.492719
-0.526365 0.663447 -0.53177
-0.46345 0.687629 -0.558909
-0.38303 0.713274 -0.586965
-0.737848 0.336646 0.585021
-0.550249 0.519649 0.653599
-0.174201 0.565519 0.806128
0.130618 0.49122 0.861186
0.308945 0.404257 0.860889
0.414594 0.335626 0.845853
0.489468 0.280335 0.825732
0.557482 0.226802 0.798608
0.635606 0.159602 0.755336
0.738858 0.0533346 0.671747
0.864591 -0.135633 0.483824
0.902546 -0.420998 0.0903956
0.686794 -0.625435 -0.370331
0.403714 -0.664019 -0.62936
0.190247 -0.644863 -0.740242
0.0256862 -0.616047 -0.78729
-0.120161 -0.584896 -0.802159
-0.264111 -0.548578 -0.793289
-0.413098 -0.501034 -0.760471
-0.565989 -0.434866 -0.700391
-0.712949 -0.34456 -0.610723
-0.836863 -0.23233 -0.495664
-0.922426 -0.11176 -0.369649
-0.967711 -0.00147732 -0.252059
-0.983863 0.086667 -0.156531
-0.984559 0.151908 -0.0869871
-0.978857 0.200328 -0.0413179
-0.970775 0.239477 -0.0157292
-0.961294 0.275445 -0.00665603
-0.950015 0.312012 -0.0109965
-0.936113 0.350749 -0.0258557
-0.918931 0.391442 -0.0483648
-0.898348 0.432716 -0.0756824
-0.874925 0.472703 -0.105161
-0.849805 0.509623 -0.134599
-0.824335 0.542323 -0.16235
-0.799704 0.570448 -0.187252
-0.776895 0.59403 -0.208716
-0.756668 0.613115 -0.227029
-0.739355 0.627753 -0.243475
-0.724681 0.638107 -0.260109
-0.71169 0.644564 -0.279347
-0.698723 0.647856 -0.303429
-0.683507 0.649135 -0.333828
-0.663411 0.649933 -0.370773
-0.635785 0.651994 -0.413135
-0.598355 0.656991 -0.458622
-0.549778 0.666306 -0.503767
-0.490657 0.682432 -0.541795
-0.421633 0.710548 -0.563335
-0.758437 0.274126 0.591294
-0.728069 0.49815 0.470916
-0.408103 0.634383 0.656514
-0.0411374 0.600264 0.798743
0.200681 0.500085 0.842403
0.335626 0.414594 0.845853
0.417931 0.351802 0.837598
0.479756 0.301839 0.823849
0.539975 0.252804 0.802819
0.613956 0.189592 0.766233
0.717715 0.0866237 0.690928
0.852964 -0.103155 0.511676
0.907991 -0.403301 0.113585
0.690739 -0.624057 -0.365283
0.399095 -0.666834 -0.629329
0.178502 -0.649151 -0.739418
0.00489399 -0.620842 -0.783921
-0.152821 -0.588579 -0.793864
-0.310651 -0.548574 -0.776249
-0.473093 -0.493858 -0.729581
-0.634484 -0.417153 -0.650702
-0.779585 -0.315741 -0.540884
-0.889809 -0.197274 -0.411488
-0.956005 -0.0789283 -0.282531
-0.984807 0.0230016 -0.172124
-0.990834 0.102175 -0.0883598
-0.986349 0.161765 -0.0307732
-0.9779 0.209026 0.00451179
-0.96777 0.250907 0.0215906
-0.956059 0.292192 0.023967
-0.942036 0.335188 0.01473
-0.924962 0.380047 -0.00319068
-0.904579 0.425454 -0.0269334
-0.881329 0.46943 -0.0538032
-0.856298 0.510008 -0.0815213
-0.830817 0.545898 -0.108342
-0.806035 0.576746 -0.132937
-0.782917 0.602641 -0.154485
-0.762302 0.623652 -0.173075
-0.744675 0.639841 -0.189899
-0.729955 0.651383 -0.20704
-0.717387 0.658638 -0.227049
-0.705469 0.662278 -0.252393
-0.692004 0.663344 -0.284789
-0.674374 0.663201 -0.32463
-0.649933 0.663411 -0.370773
-0.616402 0.665572 -0.420788
-0.572229 0.671101 -0.471357
-0.517173 0.681594 -0.517651
-0.452246 0.702277 -0.5498
-0.367919 0.726456 -0.580429
-0.838274 0.437205 0.325805
-0.628095 0.637794 0.445775
-0.25899 0.69471 0.671046
0.0616408 0.604589 0.794149
0.248297 0.497378 0.831243
0.351802 0.417931 0.837598
0.417539 0.36141 0.833693
0.469995 0.316358 0.824028
0.524648 0.271294 0.806935
0.595858 0.211647 0.774699
0.700367 0.111944 0.70495
0.843119 -0.0771311 0.532166
0.912324 -0.387518 0.13227
0.695096 -0.622751 -0.359197
0.395273 -0.671199 -0.627098
0.165857 -0.656031 -0.736284
-0.0189918 -0.628504 -0.777574
-0.19066 -0.594682 -0.781026
-0.36361 -0.549738 -0.752048
-0.538532 -0.486042 -0.688292
-0.703913 -0.397597 -0.588578
-0.840218 -0.286266 -0.460528
-0.931866 -0.165138 -0.323041
-0.978833 -0.0520678 -0.197926
-0.994282 0.0413499 -0.0984523
-0.993121 0.113918 -0.0270868
-0.985037 0.171237 0.0195124
-0.9743 0.22053 0.0458996
-0.96192 0.267518 0.0560809
-0.947458 0.315387 0.0534284
-0.93018 0.364811 0.0409716
-0.909733 0.414632 0.0215935
-0.886452 0.462817 -0.00197179
-0.861378 0.507226 -0.0273767
-0.835842 0.546427 -0.0527896
-0.810936 0.580084 -0.0767149
-0.787574 0.608366 -0.0980727
-0.766647 0.631371 -0.116718
-0.748782 0.649186 -0.133727
-0.734082 0.662018 -0.151181
-0.722001 0.670238 -0.171744
-0.711208 0.67449 -0.198107
-0.699583 0.675752 -0.232257
-0.684483 0.675256 -0.274795
-0.663201 0.674374 -0.32463
-0.633403 0.674549 -0.379189
-0.593447 0.677196 -0.435002
-0.542677 0.683682 -0.487935
-0.481847 0.696907 -0.531173
-0.410042 0.723283 -0.555632
-0.913589 0.302923 0.271281
-0.787835 0.573218 0.225248
-0.497359 0.735798 0.459604
-0.126666 0.713213 0.689408
0.136581 0.593508 0.793154
0.280335 0.489468 0.825732
0.36141 0.417539 0.833693
0.415319 0.366976 0.83237
0.461005 0.326347 0.82521
0.511696 0.284877 0.810563
0.581139 0.228548 0.781052
0.686623 0.132039 0.714923
0.835376 -0.0556052 0.546859
0.91594 -0.3734 0.147059
0.699157 -0.622022 -0.352516
0.39094 -0.677364 -0.623172
0.1509 -0.665378 -0.731096
-0.0474733 -0.638517 -0.768142
-0.235144 -0.602164 -0.762958
-0.423747 -0.550438 -0.719344
-0.608331 -0.475741 -0.635298
-0.771062 -0.375197 -0.51448
-0.891645 -0.256641 -0.372969
-0.962384 -0.136763 -0.23476
-0.99245 -0.0307037 -0.118743
-0.997948 0.0555979 -0.0317637
-0.991795 0.124738 0.0279925
-0.980917 0.183161 0.0652269
-0.967798 0.237129 0.0844806
-0.952613 0.29072 0.0895053
-0.934782 0.345271 0.0834868
-0.913932 0.3999 0.069339
-0.890326 0.45259 0.0498304
-0.864981 0.501058 0.027375
-0.839253 0.543727 0.00387764
-0.814176 0.580307 -0.0189984