# vtk DataFile Version 2.0
tmp/0.000.00-10.000.000.001.0039.vtk
ASCII
DATASET UNSTRUCTURED_GRID
POINTS 5000 float
0.75 0.25 0
1.75 0.25 0
2.75 0.25 0
3.75 0.25 0
4.75 0.25 0
5.75 0.25 0
6.75 0.25 0
7.75 0.25 0
8.75 0.25 0
9.75 0.25 0
10.75 0.25 0
11.75 0.25 0
12.75 0.25 0
13.75 0.25 0
14.75 0.25 0
15.75 0.25 0
16.75 0.25 0
17.75 0.25 0
18.75 0.25 0
19.75 0.25 0
20.75 0.25 0
21.75 0.25 0
22.75 0.25 0
23.75 0.25 0
24.75 0.25 0
25.75 0.25 0
26.75 0.25 0
27.75 0.25 0
28.75 0.25 0
29.75 0.25 0
30.75 0.25 0
31.75 0.25 0
32.75 0.25 0
33.75 0.25 0
34.75 0.25 0
35.75 0.25 0
36.75 0.25 0
37.75 0.25 0
38.75 0.25 0
39.75 0.25 0
40.75 0.25 0
41.75 0.25 0
42.75 0.25 0
43.75 0.25 0
44.75 0.25 0
45.75 0.25 0
46.75 0.25 0
47.75 0.25 0
48.75 0.25 0
49.75 0.25 0
0.25 0.75 0
1.25 0.75 0
2.25 0.75 0
3.25 0.75 0
4.25 0.75 0
5.25 0.75 0
6.25 0.75 0
7.25 0.75 0
8.25 0.75 0
9.25 0.75 0
10.25 0.75 0
11.25 0.75 0
12.25 0.75 0
13.25 0.75 0
14.25 0.75 0
15.25 0.75 0
16.25 0.75 0
17.25 0.75 0
18.25 0.75 0
19.25 0.75 0
20.25 0.75 0
21.25 0.75 0
22.25 0.75 0
23.25 0.75 0
24.25 0.75 0
25.25 0.75 0
26.25 0.75 0
27.25 0.75 0
28.25 0.75 0
29.25 0.75 0
30.25 0.75 0
31.25 0.75 0
32.25 0.75 0
33.25 0.75 0
34.25 0.75 0
35.25 0.75 0
36.25 0.75 0
37.25 0.75 0
38.25 0.75 0
39.25 0.75 0
40.25 0.75 0
41.25 0.75 0
42.25 0.75 0
43.25 0.75 0
44.25 0.75 0
45.25 0.75 0
46.25 0.75 0
47.25 0.75 0
48.25 0.75 0
49.25 0.75 0
0.75 1.25 0
1.75 1.25 0
2.75 1.25 0
3.75 1.25 0
4.75 1.25 0
5.75 1.25 0
6.75 1.25 0
7.75 1.25 0
8.75 1.25 0
9.75 1.25 0
10.75 1.25 0
11.75 1.25 0
12.75 1.25 0
13.75 1.25 0
14.75 1.25 0
15.75 1.25 0
16.75 1.25 0
17.75 1.25 0
18.75 1.25 0
19.75 1.25 0
20.75 1.25 0
21.75 1.25 0
22.75 1.25 0
23.75 1.25 0
24.75 1.25 0
25.75 1.25 0
26.75 1.25 0
27.75 1.25 0
28.75 1.25 0
29.75 1.25 0
30.75 1.25 0
31.75 1.25 0
32.75 1.25 0
33.75 1.25 0
34.75 1.25 0
35.75 1.25 0
36.75 1.25 0
37.75 1.25 0
38.75 1.25 0
39.75 1.25 0
40.75 1.25 0
41.75 1.25 0
42.75 1.25 0
43.75 1.25 0
44.75 1.25 0
45.75 1.25 0
46.75 1.25 0
47.75 1.25 0
48.75 1.25 0
49.75 1.25 0
0.25 1.75 0
1.25 1.75 0
2.25 1.75 0
3.25 1.75 0
4.25 1.75 0
5.25 1.75 0
6.25 1.75 0
7.25 1.75 0
8.25 1.75 0
9.25 1.75 0
10.25 1.75 0
11.25 1.75 0
12.25 1.75 0
13.25 1.75 0
14.25 1.75 0
15.25 1.75 0
16.25 1.75 0
17.25 1.75 0
18.25 1.75 0
19.25 1.75 0
20.25 1.75 0
21.25 1.75 0
22.25 1.75 0
23.25 1.75 0
24.25 1.75 0
25.25 1.75 0
26.25 1.75 0
27.25 1.75 0
28.25 1.75 0
29.25 1.75 0
30.25 1.75 0
31.25 1.75 0
32.25 1.75 0
33.25 1.75 0
34.25 1.75 0
35.25 1.75 0
36.25 1.75 0
37.25 1.75 0
38.25 1.75 0
39.25 1.75 0
40.25 1.75 0
41.25 1.75 0
42.25 1.75 0
43.25 1.75 0
44.25 1.75 0
45.25 1.75 0
46.25 1.75 0
47.25 1.75 0
48.25 1.75 0
49.25 1.75 0
0.75 2.25 0
1.75 2.25 0
2.75 2.25 0
3.75 2.25 0
4.75 2.25 0
5.75 2.25 0
6.75 2.25 0
7.75 2.25 0
8.75 2.25 0
9.75 2.25 0
10.75 2.25 0
11.75 2.25 0
12.75 2.25 0
13.75 2.25 0
14.75 2.25 0
15.75 2.25 0
16.75 2.25 0
17.75 2.25 0
18.75 2.25 0
19.75 2.25 0
20.75 2.25 0
21.75 2.25 0
22.75 2.25 0
23.75 2.25 0
24.75 2.25 0
25.75 2.25 0
26.75 2.25 0
27.75 2.25 0
28.75 2.25 0
29.75 2.25 0
30.75 2.25 0
31.75 2.25 0
32.75 2.25 0
33.75 2.25 0
34.75 2.25 0
35.75 2.25 0
36.75 2.25 0
37.75 2.25 0
38.75 2.25 0
39.75 2.25 0
40.75 2.25 0
41.75 2.25 0
42.75 2.25 0
43.75 2.25 0
44.75 2.25 0
45.75 2.25 0
46.75 2.25 0
47.75 2.25 0
48.75 2.25 0
49.75 2.25 0
0.25 2.75 0
1.25 2.75 0
2.25 2.75 0
3.25 2.75 0
4.25 2.75 0
5.25 2.75 0
6.25 2.75 0
7.25 2.75 0
8.25 2.75 0
9.25 2.75 0
10.25 2.75 0
11.25 2.75 0
12.25 2.75 0
13.25 2.75 0
14.25 2.75 0
15.25 2.75 0
16.25 2.75 0
17.25 2.75 0
18.25 2.75 0
19.25 2.75 0
20.25 2.75 0
21.25 2.75 0
22.25 2.75 0
23.25 2.75 0
24.25 2.75 0
25.25 2.75 0
26.25 2.75 0
27.25 2.75 0
28.25 2.75 0
29.25 2.75 0
30.25 2.75 0
31.25 2.75 0
32.25 2.75 0
33.25 2.75 0
34.25 2.75 0
35.25 2.75 0
36.25 2.75 0
37.25 2.75 0
38.25 2.75 0
39.25 2.75 0
40.25 2.75 0
41.25 2.75 0
42.25 2.75 0
43.25 2.75 0
44.25 2.75 0
45.25 2.75 0
46.25 2.75 0
47.25 2.75 0
48.25 2.75 0
49.25 2.75 0
0.75 3.25 0
1.75 3.25 0
2.75 3.25 0
3.75 3.25 0
4.75 3.25 0
5.75 3.25 0
6.75 3.25 0
7.75 3.25 0
8.75 3.25 0
9.75 3.25 0
10.75 3.25 0
11.75 3.25 0
12.75 3.25 0
13.75 3.25 0
14.75 3.25 0
15.75 3.25 0
16.75 3.25 0
17.75 3.25 0
18.75 3.25 0
19.75 3.25 0
20.75 3.25 0
21.75 3.25 0
22.75 3.25 0
23.75 3.25 0
24.75 3.25 0
25.75 3.25 0
26.75 3.25 0
27.75 3.25 0
28.75 3.25 0
29.75 3.25 0
30.75 3.25 0
31.75 3.25 0
32.75 3.25 0
33.75 3.25 0
34.75 3.25 0
35.75 3.25 0
36.75 3.25 0
37.75 3.25 0
38.75 3.25 0
39.75 3.25 0
40.75 3.25 0
41.75 3.25 0
42.75 3.25 0
43.75 3.25 0
44.75 3.25 0
45.75 3.25 0
46.75 3.25 0
47.75 3.25 0
48.75 3.25 0
49.75 3.25 0
0.25 3.75 0
1.25 3.75 0
2.25 3.75 0
3.25 3.75 0
4.25 3.75 0
5.25 3.75 0
6.25 3.75 0
7.25 3.75 0
8.25 3.75 0
9.25 3.75 0
10.25 3.75 0
11.25 3.75 0
12.25 3.75 0
13.25 3.75 0
14.25 3.75 0
15.25 3.75 0
16.25 3.75 0
17.25 3.75 0
18.25 3.75 0
19.25 3.75 0
20.25 3.75 0
21.25 3.75 0
22.25 3.75 0
23.25 3.75 0
24.25 3.75 0
25.25 3.75 0
26.25 3.75 0
27.25 3.75 0
28.25 3.75 0
29.25 3.75 0
30.25 3.75 0
31.25 3.75 0
32.25 3.75 0
33.25 3.75 0
34.25 3.75 0
35.25 3.75 0
36.25 3.75 0
37.25 3.75 0
38.25 3.75 0
39.25 3.75 0
40.25 3.75 0
41.25 3.75 0
42.25 3.75 0
43.25 3.75 0
44.25 3.75 0
45.25 3.75 0
46.25 3.75 0
47.25 3.75 0
48.25 3.75 0
49.25 3.75 0
0.75 4.25 0
1.75 4.25 0
2.75 4.25 0
3.75 4.25 0
4.75 4.25 0
5.75 4.25 0
6.75 4.25 0
7.75 4.25 0
8.75 4.25 0
9.75 4.25 0
10.75 4.25 0
11.75 4.25 0
12.75 4.25 0
13.75 4.25 0
14.75 4.25 0
15.75 4.25 0
16.75 4.25 0
17.75 4.25 0
18.75 4.25 0
19.75 4.25 0
20.75 4.25 0
21.75 4.25 0
22.75 4.25 0
23.75 4.25 0
24.75 4.25 0
25.75 4.25 0
26.75 4.25 0
27.75 4.25 0
28.75 4.25 0
29.75 4.25 0
30.75 4.25 0
31.75 4.25 0
32.75 4.25 0
33.75 4.25 0
34.75 4.25 0
35.75 4.25 0
36.75 4.25 0
37.75 4.25 0
38.75 4.25 0
39.75 4.25 0
40.75 4.25 0
41.75 4.25 0
42.75 4.25 0
43.75 4.25 0
44.75 4.25 0
45.75 4.25 0
46.75 4.25 0
47.75 4.25 0
48.75 4.25 0
49.75 4.25 0
0.25 4.75 0
1.25 4.75 0
2.25 4.75 0
3.25 4.75 0
4.25 4.75 0
5.25 4.75 0
6.25 4.75 0
7.25 4.75 0
8.25 4.75 0
9.25 4.75 0
10.25 4.75 0
11.25 4.75 0
12.25 4.75 0
13.25 4.75 0
14.25 4.75 0
15.25 4.75 0
16.25 4.75 0
17.25 4.75 0
18.25 4.75 0
19.25 4.75 0
20.25 4.75 0
21.25 4.75 0
22.25 4.75 0
23.25 4.75 0
24.25 4.75 0
25.25 4.75 0
26.25 4.75 0
27.25 4.75 0
28.25 4.75 0
29.25 4.75 0
30.25 4.75 0
31.25 4.75 0
32.25 4.75 0
33.25 4.75 0
34.25 4.75 0
35.25 4.75 0
36.25 4.75 0
37.25 4.75 0
38.25 4.75 0
39.25 4.75 0
40.25 4.75 0
41.25 4.75 0
42.25 4.75 0
43.25 4.75 0
44.25 4.75 0
45.25 4.75 0
46.25 4.75 0
47.25 4.75 0
48.25 4.75 0
49.25 4.75 0
0.75 5.25 0
1.75 5.25 0
2.75 5.25 0
3.75 5.25 0
4.75 5.25 0
5.75 5.25 0
6.75 5.25 0
7.75 5.25 0
8.75 5.25 0
9.75 5.25 0
10.75 5.25 0
11.75 5.25 0
12.75 5.25 0
13.75 5.25 0
14.75 5.25 0
15.75 5.25 0
16.75 5.25 0
17.75 5.25 0
18.75 5.25 0
19.75 5.25 0
20.75 5.25 0
21.75 5.25 0
22.75 5.25 0
23.75 5.25 0
24.75 5.25 0
25.75 5.25 0
26.75 5.25 0
27.75 5.25 0
28.75 5.25 0
29.75 5.25 0
30.75 5.25 0
31.75 5.25 0
32.75 5.25 0
33.75 5.25 0
34.75 5.25 0
35.75 5.25 0
36.75 5.25 0
37.75 5.25 0
38.75 5.25 0
39.75 5.25 0
40.75 5.25 0
41.75 5.25 0
42.75 5.25 0
43.75 5.25 0
44.75 5.25 0
45.75 5.25 0
46.75 5.25 0
47.75 5.25 0
48.75 5.25 0
49.75 5.25 0
0.25 5.75 0
1.25 5.75 0
2.25 5.75 0
3.25 5.75 0
4.25 5.75 0
5.25 5.75 0
6.25 5.75 0
7.25 5.75 0
8.25 5.75 0
9.25 5.75 0
10.25 5.75 0
11.25 5.75 0
12.25 5.75 0
13.25 5.75 0
14.25 5.75 0
15.25 5.75 0
16.25 5.75 0
17.25 5.75 0
18.25 5.75 0
19.25 5.75 0
20.25 5.75 0
21.25 5.75 0
22.25 5.75 0
23.25 5.75 0
24.25 5.75 0
25.25 5.75 0
26.25 5.75 0
27.25 5.75 0
28.25 5.75 0
29.25 5.75 0
30.25 5.75 0
31.25 5.75 0
32.25 5.75 0
33.25 5.75 0
34.25 5.75 0
35.25 5.75 0
36.25 5.75 0
37.25 5.75 0
38.25 5.75 0
39.25 5.75 0
40.25 5.75 0
41.25 5.75 0
42.25 5.75 0
43.25 5.75 0
44.25 5.75 0
45.25 5.75 0
46.25 5.75 0
47.25 5.75 0
48.25 5.75 0
49.25 5.75 0
0.75 6.25 0
1.75 6.25 0
2.75 6.25 0
3.75 6.25 0
4.75 6.25 0
5.75 6.25 0
6.75 6.25 0
7.75 6.25 0
8.75 6.25 0
9.75 6.25 0
10.75 6.25 0
11.75 6.25 0
12.75 6.25 0
13.75 6.25 0
14.75 6.25 0
15.75 6.25 0
16.75 6.25 0
17.75 6.25 0
18.75 6.25 0
19.75 6.25 0
20.75 6.25 0
21.75 6.25 0
22.75 6.25 0
23.75 6.25 0
24.75 6.25 0
25.75 6.25 0
26.75 6.25 0
27.75 6.25 0
28.75 6.25 0
29.75 6.25 0
30.75 6.25 0
31.75 6.25 0
32.75 6.25 0
33.75 6.25 0
34.75 6.25 0
35.75 6.25 0
36.75 6.25 0
37.75 6.25 0
38.75 6.25 0
39.75 6.25 0
40.75 6.25 0
41.75 6.25 0
42.75 6.25 0
43.75 6.25 0
44.75 6.25 0
45.75 6.25 0
46.75 6.25 0
47.75 6.25 0
48.75 6.25 0
49.75 6.25 0
0.25 6.75 0
1.25 6.75 0
2.25 6.75 0
3.25 6.75 0
4.25 6.75 0
5.25 6.75 0
6.25 6.75 0
7.25 6.75 0
8.25 6.75 0
9.25 6.75 0
10.25 6.75 0
11.25 6.75 0
12.25 6.75 0
13.25 6.75 0
14.25 6.75 0
15.25 6.75 0
16.25 6.75 0
17.25 6.75 0
18.25 6.75 0
19.25 6.75 0
20.25 6.75 0
21.25 6.75 0
22.25 6.75 0
23.25 6.75 0
24.25 6.75 0
25.25 6.75 0
26.25 6.75 0
27.25 6.75 0
28.25 6.75 0
29.25 6.75 0
30.25 6.75 0
31.25 6.75 0
32.25 6.75 0
33.25 6.75 0
34.25 6.75 0
35.25 6.75 0
36.25 6.75 0
37.25 6.75 0
38.25 6.75 0
39.25 6.75 0
40.25 6.75 0
41.25 6.75 0
42.25 6.75 0
43.25 6.75 0
44.25 6.75 0
45.25 6.75 0
46.25 6.75 0
47.25 6.75 0
48.25 6.75 0
49.25 6.75 0
0.75 7.25 0
1.75 7.25 0
2.75 7.25 0
3.75 7.25 0
4.75 7.25 0
5.75 7.25 0
6.75 7.25 0
7.75 7.25 0
8.75 7.25 0
9.75 7.25 0
10.75 7.25 0
11.75 7.25 0
12.75 7.25 0
13.75 7.25 0
14.75 7.25 0
15.75 7.25 0
16.75 7.25 0
17.75 7.25 0
18.75 7.25 0
19.75 7.25 0
20.75 7.25 0
21.75 7.25 0
22.75 7.25 0
23.75 7.25 0
24.75 7.25 0
25.75 7.25 0
26.75 7.25 0
27.75 7.25 0
28.75 7.25 0
29.75 7.25 0
30.75 7.25 0
31.75 7.25 0
32.75 7.25 0
33.75 7.25 0
34.75 7.25 0
35.75 7.25 0
36.75 7.25 0
37.75 7.25 0
38.75 7.25 0
39.75 7.25 0
40.75 7.25 0
41.75 7.25 0
42.75 7.25 0
43.75 7.25 0
44.75 7.25 0
45.75 7.25 0
46.75 7.25 0
47.75 7.25 0
48.75 7.25 0
49.75 7.25 0
0.25 7.75 0
1.25 7.75 0
2.25 7.75 0
3.25 7.75 0
4.25 7.75 0
5.25 7.75 0
6.25 7.75 0
7.25 7.75 0
8.25 7.75 0
9.25 7.75 0
10.25 7.75 0
11.25 7.75 0
12.25 7.75 0
13.25 7.75 0
14.25 7.75 0
15.25 7.75 0
16.25 7.75 0
17.25 7.75 0
18.25 7.75 0
19.25 7.75 0
20.25 7.75 0
21.25 7.75 0
[...]
POINT_DATA 5000
VECTORS velocity float
-0.480906 -0.527189 0.700572
-0.38729 -0.609887 0.691407
-0.248192 -0.717259 0.651107
-0.0889478 -0.820134 0.565216
0.0686483 -0.898987 0.432562
0.209301 -0.942636 0.26006
0.321574 -0.945022 0.0593608
0.395563 -0.905385 -0.154298
0.423696 -0.82967 -0.363496
0.403213 -0.730291 -0.551448
0.337802 -0.623271 -0.705282
0.236924 -0.524 -0.818102
0.113259 -0.443705 -0.888987
-0.0202631 -0.387972 -0.921449
-0.152646 -0.357224 -0.921461
-0.275864 -0.348228 -0.8959
-0.385023 -0.355715 -0.851601
-0.478032 -0.373653 -0.794902
-0.555061 -0.39611 -0.73144
-0.617913 -0.417794 -0.666057
-0.669338 -0.434408 -0.602724
-0.712376 -0.442789 -0.54448
-0.74977 -0.440871 -0.493434
-0.783526 -0.427562 -0.450864
-0.814628 -0.402689 -0.4174
-0.842981 -0.367068 -0.393247
-0.867615 -0.322602 -0.378382
-0.887133 -0.272213 -0.372686
-0.900256 -0.219469 -0.375996
-0.90621 -0.167926 -0.388052
-0.90483 -0.120456 -0.40838
-0.896416 -0.0788311 -0.436147
-0.881547 -0.0436555 -0.470073
-0.860974 -0.0145845 -0.508439
-0.835631 0.00931464 -0.549213
-0.806685 0.0291855 -0.59026
-0.775561 0.0460883 -0.629588
-0.74386 0.0608391 -0.665561
-0.713199 0.0739905 -0.697045
-0.685008 0.0859246 -0.723451
-0.660326 0.0969916 -0.744689
-0.639652 0.10763 -0.761092
-0.62281 0.118489 -0.773349
-0.608846 0.130606 -0.782463
-0.595905 0.145667 -0.789733
-0.580947 0.166299 -0.796772
-0.559151 0.196377 -0.805473
-0.523354 0.241142 -0.817283
-0.466622 0.306124 -0.82979
-0.397644 0.397644 -0.826897
-0.527189 -0.480906 0.700572
-0.455498 -0.541531 0.706587
-0.310694 -0.639049 0.703623
-0.13562 -0.742651 0.655803
0.0412476 -0.829238 0.557371
0.201828 -0.888032 0.413116
0.335411 -0.913031 0.232107
0.433481 -0.900772 0.0265393
0.488284 -0.852174 -0.188092
0.49478 -0.774332 -0.394465
0.453184 -0.679832 -0.576588
0.369843 -0.583594 -0.722935
0.255863 -0.498996 -0.827972
0.124428 -0.435096 -0.891745
-0.0118507 -0.395745 -0.918284
-0.142714 -0.38027 -0.913799
-0.261033 -0.384885 -0.885283
-0.36286 -0.404129 -0.83965
-0.447082 -0.431952 -0.783285
-0.51492 -0.462395 -0.721837
-0.569328 -0.490014 -0.660115
-0.614293 -0.510107 -0.602025
-0.654082 -0.518769 -0.550505
-0.692453 -0.512791 -0.507499
-0.731854 -0.489611 -0.473995
-0.772646 -0.447663 -0.450129
-0.812671 -0.387318 -0.435374
-0.847761 -0.312034 -0.428878
-0.873471 -0.228568 -0.429889
-0.887136 -0.145315 -0.438034
-0.888686 -0.0695083 -0.453217
-0.879854 -0.00527831 -0.475215
-0.862854 0.0464796 -0.503312
-0.839605 0.0870568 -0.536176
-0.811628 0.118709 -0.571986
-0.780274 0.143767 -0.608689
-0.746945 0.164161 -0.644301
-0.71316 0.181259 -0.677162
-0.680464 0.195912 -0.706107
-0.650248 0.20861 -0.73052
-0.623576 0.219637 -0.750275
-0.601053 0.229172 -0.765647
-0.582737 0.237372 -0.777221
-0.568056 0.244551 -0.785816
-0.555731 0.251462 -0.79242
-0.543575 0.259655 -0.798189
-0.527906 0.271895 -0.804604
-0.502305 0.292586 -0.813685
-0.456625 0.32783 -0.827056
-0.385911 0.385911 -0.837941
-0.541531 -0.455498 0.706587
-0.41153 -0.52687 0.743674
-0.235081 -0.627227 0.742511
-0.0465891 -0.725086 0.687081
0.130427 -0.805104 0.578615
0.283648 -0.859948 0.424303
0.405405 -0.88379 0.233585
0.488199 -0.872518 0.0193724
0.525177 -0.826833 -0.201336
0.513136 -0.754142 -0.409831
0.454799 -0.667237 -0.589875
0.358656 -0.58057 -0.730962
0.236795 -0.506391 -0.829154
0.102208 -0.45247 -0.885903
-0.03339 -0.421665 -0.906137
-0.16084 -0.412777 -0.896519
-0.274037 -0.421894 -0.864239
-0.369909 -0.443682 -0.81628
-0.448101 -0.472317 -0.759027
-0.510544 -0.502044 -0.698067
-0.56088 -0.527508 -0.638082
-0.603739 -0.543922 -0.582793
-0.643879 -0.547072 -0.534913
-0.685227 -0.533207 -0.496139
-0.729804 -0.499135 -0.467173
-0.776654 -0.443023 -0.447817
-0.821482 -0.366064 -0.437223
-0.858029 -0.274028 -0.43439
-0.881096 -0.176634 -0.438715
-0.888996 -0.084104 -0.450125
-0.883384 -0.00342589 -0.468636
-0.867314 0.062901 -0.493771
-0.843629 0.115755 -0.5243
-0.814493 0.157602 -0.558357
-0.781611 0.191147 -0.593757
-0.746568 0.218634 -0.62836
-0.71099 0.241637 -0.660382
-0.676494 0.261133 -0.688596
-0.644514 0.277693 -0.712382
-0.616142 0.291656 -0.731646
-0.592034 0.303197 -0.746704
-0.572352 0.312374 -0.758179
-0.556712 0.319282 -0.766897
-0.544141 0.324342 -0.773765
-0.532963 0.32867 -0.779696
-0.520354 0.334471 -0.785723
-0.501144 0.345341 -0.79347
-0.465616 0.365928 -0.80579
-0.399375 0.399375 -0.825227
-0.306124 0.466622 -0.82979
-0.609887 -0.38729 0.691407
-0.52687 -0.41153 0.743674
-0.358567 -0.493131 0.792623
-0.164565 -0.592231 0.788785
0.0263374 -0.686725 0.72644
0.197687 -0.766784 0.610707
0.341899 -0.825749 0.448602
0.452612 -0.856294 0.248805
0.522117 -0.852509 0.0249395
0.543811 -0.81409 -0.203781
0.516073 -0.748485 -0.416459
0.443959 -0.668903 -0.596213
0.33772 -0.589771 -0.733563
0.209931 -0.522754 -0.826231
0.0730142 -0.474873 -0.87702
-0.0623117 -0.448462 -0.891627
-0.187861 -0.442122 -0.877061
-0.298323 -0.451998 -0.840655
-0.391255 -0.472936 -0.789462
-0.466857 -0.49931 -0.729886
-0.527579 -0.525498 -0.667467
-0.577537 -0.546163 -0.60676
-0.621678 -0.556409 -0.551294
-0.66476 -0.551816 -0.503581
-0.71019 -0.528441 -0.465166
-0.758782 -0.483235 -0.43673
-0.80782 -0.415317 -0.418257
-0.851441 -0.32786 -0.409336
-0.883124 -0.228861 -0.409529
-0.898988 -0.128953 -0.418558
-0.899133 -0.0372551 -0.436088
-0.886275 0.0413857 -0.461307
-0.863686 0.106278 -0.492698
-0.834114 0.159172 -0.528128
-0.799735 0.202568 -0.565146
-0.762482 0.238714 -0.601363
-0.724256 0.26923 -0.634798
-0.686916 0.295131 -0.664112
-0.652093 0.317027 -0.688671
-0.621024 0.335312 -0.708446
-0.594464 0.350218 -0.723851
-0.572669 0.361812 -0.735624
-0.555356 0.370131 -0.744703
-0.5417 0.375464 -0.752056
-0.530293 0.378729 -0.758521
-0.518883 0.381855 -0.764818
-0.503493 0.388039 -0.771959
-0.476383 0.401281 -0.782325
-0.423308 0.423308 -0.801012
-0.32783 0.456625 -0.827056
-0.639049 -0.310694 0.703623
-0.493131 -0.358567 0.792623
-0.300189 -0.44569 0.843355
-0.0989714 -0.542755 0.834039
0.0882013 -0.636605 0.76613
0.251847 -0.720719 0.645862
0.387501 -0.7881 0.478269
0.488817 -0.829402 0.270462
0.547081 -0.836272 0.036763
0.555562 -0.806859 -0.200819
0.514168 -0.748587 -0.418626
0.430157 -0.67538 -0.599022
0.315175 -0.602046 -0.733624
0.181914 -0.540068 -0.821726
0.0421488 -0.496089 -0.867248
-0.0941882 -0.47218 -0.876456
-0.219554 -0.466861 -0.856643
-0.329138 -0.476323 -0.815343
-0.420951 -0.495511 -0.759782
-0.49566 -0.51887 -0.696487
-0.55621 -0.540778 -0.631023
-0.607141 -0.555788 -0.567872
-0.653578 -0.558825 -0.510441
-0.69999 -0.545299 -0.461155
-0.748836 -0.511359 -0.421611
-0.799345 -0.454726 -0.392774
-0.847134 -0.376312 -0.37517
-0.885709 -0.281667 -0.369029
-0.909629 -0.180272 -0.374269
-0.917011 -0.0821161 -0.390316
-0.909393 0.00590705 -0.415896
-0.889838 0.0811884 -0.448996
-0.861383 0.144286 -0.487033
-0.826578 0.197155 -0.527161
-0.787679 0.241855 -0.566629
-0.746889 0.279958 -0.603142
-0.706376 0.312466 -0.635136
-0.668086 0.339994 -0.661865
-0.633523 0.36297 -0.683302
-0.603661 0.381676 -0.69994
-0.578925 0.396202 -0.71265
-0.559163 0.406551 -0.722533
-0.543654 0.412914 -0.730713
-0.531136 0.416048 -0.738105
-0.519693 0.417667 -0.745301
-0.506217 0.4207 -0.752832
-0.484903 0.428918 -0.762167
-0.444464 0.444464 -0.777755
-0.365928 0.465616 -0.80579
-0.241142 0.523354 -0.817283
-0.717259 -0.248192 0.651107
-0.627227 -0.235081 0.742511
-0.44569 -0.300189 0.843355
-0.239092 -0.389271 0.889552
-0.0384579 -0.484887 0.873731
0.141507 -0.580106 0.802155
0.296961 -0.670451 0.679934
0.42509 -0.748462 0.509022
0.518687 -0.80267 0.294424
0.567473 -0.821802 0.0511375
0.564337 -0.80205 -0.195548
0.510693 -0.750853 -0.418823
0.415864 -0.683168 -0.600282
0.29259 -0.614499 -0.732654
0.153533 -0.5564 -0.816607
0.00998662 -0.515329 -0.856934
-0.12857 -0.49318 -0.860374
-0.254929 -0.488385 -0.834561
-0.364604 -0.497108 -0.787368
-0.456007 -0.514289 -0.726337
-0.530309 -0.534346 -0.658215
-0.591002 -0.551542 -0.588658
-0.64306 -0.560225 -0.522132
-0.691686 -0.555083 -0.462009
-0.740822 -0.531451 -0.410783
-0.791671 -0.485916 -0.370328
-0.841769 -0.417587 -0.34212
-0.885544 -0.329707 -0.32727
-0.916848 -0.230026 -0.32631
-0.932031 -0.128485 -0.338836
-0.931059 -0.0334539 -0.363331
-0.91629 0.0505883 -0.397308
-0.890709 0.122808 -0.437671
-0.857053 0.184413 -0.481095
-0.817789 0.237141 -0.524391
-0.775338 0.282453 -0.564864
-0.732141 0.321305 -0.60061
-0.690468 0.354302 -0.630653
-0.652165 0.381899 -0.654854
-0.618516 0.40443 -0.673702
-0.590223 0.422008 -0.688147
-0.567351 0.434599 -0.699455
-0.549325 0.442295 -0.708955
-0.534994 0.445681 -0.717739
-0.522642 0.446244 -0.726438
-0.50971 0.446656 -0.735319
-0.491848 0.450551 -0.745044
-0.460768 0.460768 -0.758542
-0.401281 0.476383 -0.782325
-0.292586 0.502305 -0.813685
-0.742651 -0.13562 0.655803
-0.592231 -0.164565 0.788785
-0.389271 -0.239092 0.889552
-0.178221 -0.328508 0.927534
0.0165128 -0.423492 0.90575
0.18765 -0.521191 0.832555
0.335241 -0.61865 0.710553
0.457035 -0.708164 0.538166
0.544413 -0.776209 0.317986
0.585125 -0.80828 0.0656708
0.571502 -0.798333 -0.189866
0.506466 -0.753921 -0.418444
0.401288 -0.691262 -0.600936
0.269631 -0.6267 -0.731127
0.124169 -0.571957 -0.810831
-0.0240236 -0.53336 -0.845547
-0.165619 -0.512634 -0.842482
-0.293553 -0.508082 -0.80974
-0.403608 -0.515787 -0.755689
-0.494647 -0.530623 -0.688305
-0.568434 -0.546912 -0.614629
-0.629085 -0.55872 -0.540448
-0.682009 -0.560109 -0.470257
-0.732352 -0.545533 -0.407497
-0.783255 -0.510444 -0.354906
-0.834422 -0.452351 -0.314831
-0.881833 -0.37239 -0.289302
-0.919446 -0.276369 -0.279712
-0.942308 -0.173575 -0.28623
-0.948738 -0.073321 -0.307441
-0.940045 0.0182046 -0.340564
-0.918871 0.0986822 -0.382018
-0.887957 0.168424 -0.427979
-0.849851 0.228746 -0.474794
-0.807076 0.280933 -0.519331
-0.762241 0.325866 -0.559285
-0.717879 0.364117 -0.593353
-0.676158 0.396171 -0.621176
-0.638711 0.422426 -0.643121
-0.606591 0.443032 -0.660128
-0.580177 0.457925 -0.673572
-0.559121 0.467091 -0.684988
-0.542418 0.470941 -0.695699
-0.528485 0.470717 -0.70649
-0.515096 0.468824 -0.717551
-0.498869 0.468739 -0.728981
-0.473829 0.473829 -0.742275
-0.428918 0.484903 -0.762167
-0.345341 0.501144 -0.79347
-0.196377 0.559151 -0.805473
-0.820134 -0.0889478 0.565216
-0.725086 -0.0465891 0.687081
-0.542755 -0.0989714 0.834039
-0.328508 -0.178221 0.927534
-0.120043 -0.267387 0.956083
0.0658299 -0.362255 0.929751
0.227828 -0.462782 0.856696
0.368325 -0.567369 0.736498
0.484946 -0.668339 0.564048
0.567322 -0.750289 0.339428
0.600959 -0.795373 0.0789271
0.577535 -0.795184 -0.184757
0.501516 -0.757441 -0.418049
0.386053 -0.699677 -0.601178
0.245669 -0.639056 -0.728872
0.0931856 -0.587449 -0.803878
-0.0602839 -0.551054 -0.832289
-0.205343 -0.531421 -0.821843
-0.334981 -0.526712 -0.781257
-0.445282 -0.532904 -0.71954
-0.535659 -0.544784 -0.645198
-0.608576 -0.55653 -0.565606
-0.66884 -0.561938 -0.486702
-0.72225 -0.554733 -0.413069
-0.773686 -0.529212 -0.348344
-0.825179 -0.4813 -0.295686
-0.8748 -0.410074 -0.258
-0.917391 -0.319243 -0.237651
-0.947305 -0.216947 -0.235683
-0.961333 -0.11295 -0.251161
-0.959514 -0.0149621 -0.281262
-0.943902 0.0731411 -0.322024
-0.917085 0.150641 -0.369138
-0.881588 0.218329 -0.418492
-0.839933 0.27725 -0.466524
-0.794782 0.328171 -0.510515
-0.748822 0.371603 -0.548796
-0.704467 0.408049 -0.580708
-0.663666 0.437984 -0.606398
-0.627842 0.461612 -0.626681
-0.597756 0.478849 -0.642956
-0.573372 0.489588 -0.656923
-0.553896 0.494067 -0.670147
-0.537881 0.493284 -0.683634
-0.523296 0.489372 -0.697622
-0.50736 0.485622 -0.711869
-0.485703 0.485703 -0.726763
-0.450551 0.491848 -0.745044
-0.388039 0.503493 -0.771959
-0.271895 0.527906 -0.804604
-0.829238 0.0412476 0.557371
-0.686725 0.0263374 0.72644
-0.484887 -0.0384579 0.873731
-0.267387 -0.120043 0.956083
-0.0660265 -0.208671 0.975754
0.109898 -0.303552 0.946456
0.26326 -0.40675 0.874785
0.397621 -0.517954 0.757378
0.510081 -0.629748 0.585863
0.588336 -0.725115 0.357867
0.615491 -0.782959 0.0902595
0.582574 -0.792477 -0.180521
0.49566 -0.761504 -0.417652
0.369745 -0.708759 -0.600791
0.220212 -0.652091 -0.725454
0.0601859 -0.603463 -0.795116
-0.0989533 -0.568942 -0.816403
-0.247595 -0.54992 -0.797675
-0.37876 -0.544429 -0.748423
-0.488922 -0.548355 -0.678426
-0.578168 -0.556387 -0.596788
-0.64977 -0.562519 -0.511244
-0.709266 -0.560215 -0.427904
-0.762726 -0.542851 -0.351512
-0.814471 -0.504787 -0.286054
-0.865121 -0.442978 -0.235237
-0.911207 -0.358799 -0.202398
-0.947143 -0.258741 -0.189666
-0.968487 -0.152475 -0.196937
-0.973892 -0.0489911 -0.221661
-0.964598 0.0462117 -0.259646
-0.942898 0.13123 -0.30614
-0.911222 0.206212 -0.356583
-0.872019 0.271897 -0.407007
-0.827909 0.328893 -0.454309
-0.781626 0.377615 -0.496455
-0.735725 0.41856 -0.532463
-0.692379 0.452282 -0.562185
-0.653346 0.479047 -0.586219
-0.619785 0.498762 -0.60589
-0.592038 0.511233 -0.623002
-0.569593 0.516535 -0.63934
-0.551171 0.515436 -0.656152
-0.534875 0.509805 -0.673801
-0.518267 0.502734 -0.691851
-0.498026 0.498026 -0.709887
-0.468739 0.498869 -0.728981
-0.4207 0.506217 -0.752832
-0.334471 0.520354 -0.785723
-0.166299 0.580947 -0.796772
-0.898987 0.0686483 0.432562
-0.805104 0.130427 0.578615
-0.636605 0.0882013 0.76613
-0.423492 0.0165128 0.90575
-0.208671 -0.0660265 0.975754
-0.0166492 -0.153812 0.98796
0.149477 -0.248564 0.957012
0.29512 -0.354017 0.887455
0.42431 -0.471066 0.773342
0.533406 -0.592744 0.603434
0.608082 -0.70076 0.373058
0.629005 -0.770998 0.0995754
0.586628 -0.790265 -0.177054
0.488711 -0.766331 -0.41701
0.352061 -0.718849 -0.599424
0.192945 -0.666172 -0.720408
0.0249594 -0.620296 -0.78397
-0.140056 -0.587176 -0.797251
-0.292175 -0.568081 -0.769362
-0.424481 -0.560959 -0.710733
-0.533961 -0.561622 -0.632034
-0.621517 -0.564664 -0.543021
-0.691328 -0.563861 -0.451804
-0.749648 -0.552292 -0.364693
-0.80262 -0.523073 -0.286699
-0.853646 -0.471034 -0.222297
-0.901754 -0.394923 -0.175715
-0.942354 -0.298992 -0.150244
-0.970307 -0.192139 -0.146928
-0.982879 -0.0842707 -0.163854
-0.980285 0.0174605 -0.196816
-0.964375 0.109781 -0.240683
-0.937418 0.192046 -0.290457
-0.901757 0.26461 -0.341784
-0.85991 0.32788 -0.391215
-0.814576 0.382137 -0.436391
-0.768347 0.42784 -0.47602
-0.723508 0.465622 -0.509639
-0.682061 0.49581 -0.537556
-0.645535 0.518288 -0.560947
-0.614672 0.532781 -0.581656
-0.5893 0.539205 -0.601651
-0.568362 0.538104 -0.622422
-0.550062 0.531101 -0.644487
-0.532143 0.521097 -0.667295
-0.511925 0.511925 -0.689831
-0.485622 0.50736 -0.711869
-0.446656 0.50971 -0.735319
-0.381855 0.518883 -0.764818
-0.259655 0.543575 -0.798189
-0.888032 0.201828 0.413116
-0.766784 0.197687 0.610707
-0.580106 0.141507 0.802155
-0.362255 0.0658299 0.929751
-0.153812 -0.0166492 0.98796
0.0283091 -0.103241 0.994253
0.185456 -0.197598 0.962581
0.324424 -0.304789 0.895462
0.449302 -0.426826 0.784823
0.5556 -0.557358 0.616977
0.626958 -0.677188 0.38515
0.641652 -0.759485 0.107075
0.589677 -0.788651 -0.174098
0.480532 -0.772118 -0.415841
0.332797 -0.730159 -0.596753
0.163664 -0.681448 -0.713332
-0.0126255 -0.637973 -0.769955
-0.183582 -0.605606 -0.774299
-0.338899 -0.585554 -0.736393
-0.471794 -0.575731 -0.66779
-0.579926 -0.571918 -0.580168
-0.665165 -0.568616 -0.483975
-0.732673 -0.559353 -0.387703
-0.789348 -0.536823 -0.297911
-0.841102 -0.494116 -0.219991
-0.890081 -0.427188 -0.158951
-0.933791 -0.337386 -0.119187
-0.967247 -0.231954 -0.103103
-0.986544 -0.121121 -0.10982
-0.990694 -0.0136204 -0.135427
-0.980916 0.0857017 -0.174525
-0.959249 0.175208 -0.221682
-0.927914 0.254762 -0.272162
-0.889309 0.324525 -0.3222
-0.846047 0.384609 -0.369163
-0.800681 0.435412 -0.411493
-0.755497 0.477644 -0.448421
-0.712626 0.511687 -0.479938
-0.673897 0.537387 -0.507029
-0.640433 0.554364 -0.531533
-0.612436 0.562367 -0.555576
-0.589113 0.561713 -0.580882
-0.568769 0.553787 -0.60813
-0.549206 0.541308 -0.636677
-0.528094 0.528094 -0.665007
-0.502734 0.518267 -0.691851
-0.468824 0.515096 -0.717551
-0.417667 0.519693 -0.745301
-0.32867 0.532963 -0.779696
-0.145667 0.595905 -0.789733
-0.942636 0.209301 0.26006
-0.859948 0.283648 0.424303
-0.720719 0.251847 0.645862
-0.521191 0.18765 0.832555
-0.303552 0.109898 0.946456
-0.103241 0.0283091 0.994253
0.0694288 -0.0567517 0.995971
0.218677 -0.150418 0.964134
0.351966 -0.258823 0.899517
0.473231 -0.385022 0.792345
0.577096 -0.523428 0.626884
0.645199 -0.654307 0.394462
0.653517 -0.748423 0.113042
0.591707 -0.78772 -0.171405
0.471026 -0.778976 -0.413921
0.311794 -0.74276 -0.59253
0.132186 -0.697894 -0.703897
-0.0527079 -0.656318 -0.752641
-0.229552 -0.623871 -0.747054
-0.387622 -0.601769 -0.6983
-0.520389 -0.587972 -0.619262
-0.626383 -0.578271 -0.522731
-0.7086 -0.567093 -0.419871
-0.77323 -0.547717 -0.319565
-0.827656 -0.512536 -0.228673
-0.877209 -0.455067 -0.153031
-0.922551 -0.373232 -0.0979608
-0.960074 -0.271541 -0.0672597
-0.985268 -0.159597 -0.0614527
-0.995877 -0.0474081 -0.0773363
-0.992275 0.0584276 -0.109439
-0.976159 0.155029 -0.151922
-0.949613 0.241609 -0.19965
-0.914923 0.318026 -0.248547
-0.874604 0.38419 -0.295747
-0.831133 0.44042 -0.339482
-0.786707 0.487519 -0.378704
-0.743474 0.525931 -0.41309
-0.703462 0.555436 -0.443432
-0.668125 0.575529 -0.471567
-0.638048 0.585763 -0.499777
-0.612735 0.586195 -0.53003
-0.590587 0.577959 -0.563179
-0.569369 0.563593 -0.598483
-0.546876 0.546876 -0.63392
-0.521097 0.532143 -0.667295
-0.489372 0.523296 -0.697622
-0.446244 0.522642 -0.726438
-0.378729 0.530293 -0.758521
-0.251462 0.555731 -0.79242
-0.913031 0.335411 0.232107
-0.825749 0.341899 0.448602
-0.670451 0.296961 0.679934
-0.462782 0.227828 0.856696
-0.248564 0.149477 0.957012
-0.0567517 0.0694288 0.995971
0.107402 -0.0138277 0.99412
0.249845 -0.106527 0.962408
0.378311 -0.215665 0.900205
0.496499 -0.345287 0.796408
0.598145 -0.490716 0.633578
0.662942 -0.632014 0.40133
0.664661 -0.737813 0.117721
0.592708 -0.787528 -0.168808
0.460103 -0.786949 -0.411116
0.288873 -0.75663 -0.58657
0.0982776 -0.715365 -0.691806
-0.0954919 -0.675014 -0.731599
-0.27804 -0.641445 -0.715012
-0.438226 -0.615979 -0.65462
-0.56995 -0.59673 -0.564864
-0.672866 -0.579561 -0.45974
-0.751253 -0.558864 -0.351127
-0.812326 -0.527709 -0.248294
-0.863721 -0.478425 -0.158416
-0.909821 -0.405641 -0.0876401
-0.949826 -0.310084 -0.0409713
-0.979711 -0.19936 -0.0205525
-0.996166 -0.0840246 -0.0243652
-0.998506 0.0275435 -0.0471974
-0.987922 0.130921 -0.0828897
-0.966323 0.22444 -0.125885
-0.935896 0.30756 -0.171771
-0.899081 0.379951 -0.217463
-0.85828 0.441836 -0.261031
-0.815547 0.494145 -0.301172
-0.772942 0.537413 -0.337265
-0.732604 0.571345 -0.369941
-0.696246 0.595294 -0.401082
-0.66482 0.608584 -0.433175
-0.638157 0.610962 -0.468488
-0.614749 0.603256 -0.508101
-0.59222 0.587793 -0.551158
-0.568286 0.568286 -0.595066
-0.541308 0.549206 -0.636677
-0.509805 0.534875 -0.673801
-0.470717 0.528485 -0.70649
-0.416048 0.531136 -0.738105
-0.324342 0.544141 -0.773765
-0.130606 0.608846 -0.782463
-0.945022 0.321574 0.0593608
-0.88379 0.405405 0.233585
-0.7881 0.387501 0.478269
-0.61865 0.335241 0.710553
-0.40675 0.26326 0.874785
-0.197598 0.185456 0.962581
-0.0138277 0.107402 0.99412
0.142886 0.0261437 0.989394
0.279497 -0.0653522 0.95792
0.403832 -0.174803 0.897978
0.519335 -0.307226 0.797435
0.618883 -0.45898 0.637433
0.680272 -0.610219 0.406033
0.675123 -0.727669 0.121269
0.592653 -0.788116 -0.166237
0.44762 -0.796049 -0.407361
0.263769 -0.771695 -0.578717
0.0615934 -0.73364 -0.676742
-0.141282 -0.693625 -0.706345
-0.329171 -0.657641 -0.677609
-0.490579 -0.627259 -0.604878
-0.620098 -0.600893 -0.504387
-0.718812 -0.574561 -0.391393
-0.792434 -0.542693 -0.278446
-0.849148 -0.498272 -0.175139
-0.896529 -0.433988 -0.0888258
-0.937729 -0.346431 -0.0254752
-0.970807 -0.2396 0.0112319
-0.992141 -0.12323 0.0217118
-0.99992 -0.00713773 0.010439
-0.994605 0.102444 -0.0163126
-0.977838 0.202653 -0.0525721
-0.951715 0.292386 -0.0935384
-0.918632 0.371011 -0.135894
-0.880955 0.43862 -0.177567
-0.840579 0.496323 -0.217005
-0.7994 0.544801 -0.253281
-0.759588 0.583696 -0.286923