# vtk DataFile Version 2.0
tmp/0.000.00-10.000.000.001.0057.vtk
ASCII
DATASET UNSTRUCTURED_GRID
POINTS 5000 float
0.25 0.25 0
1.25 0.25 0
2.25 0.25 0
3.25 0.25 0
4.25 0.25 0
5.25 0.25 0
6.25 0.25 0
7.25 0.25 0
8.25 0.25 0
9.25 0.25 0
10.25 0.25 0
11.25 0.25 0
12.25 0.25 0
13.25 0.25 0
14.25 0.25 0
15.25 0.25 0
16.25 0.25 0
17.25 0.25 0
18.25 0.25 0
19.25 0.25 0
20.25 0.25 0
21.25 0.25 0
22.25 0.25 0
23.25 0.25 0
24.25 0.25 0
25.25 0.25 0
26.25 0.25 0
27.25 0.25 0
28.25 0.25 0
29.25 0.25 0
30.25 0.25 0
31.25 0.25 0
32.25 0.25 0
33.25 0.25 0
34.25 0.25 0
35.25 0.25 0
36.25 0.25 0
37.25 0.25 0
38.25 0.25 0
39.25 0.25 0
40.25 0.25 0
41.25 0.25 0
42.25 0.25 0
43.25 0.25 0
44.25 0.25 0
45.25 0.25 0
46.25 0.25 0
47.25 0.25 0
48.25 0.25 0
49.25 0.25 0
0.75 0.75 0
1.75 0.75 0
2.75 0.75 0
3.75 0.75 0
4.75 0.75 0
5.75 0.75 0
6.75 0.75 0
7.75 0.75 0
8.75 0.75 0
9.75 0.75 0
10.75 0.75 0
11.75 0.75 0
12.75 0.75 0
13.75 0.75 0
14.75 0.75 0
15.75 0.75 0
16.75 0.75 0
17.75 0.75 0
18.75 0.75 0
19.75 0.75 0
20.75 0.75 0
21.75 0.75 0
22.75 0.75 0
23.75 0.75 0
24.75 0.75 0
25.75 0.75 0
26.75 0.75 0
27.75 0.75 0
28.75 0.75 0
29.75 0.75 0
30.75 0.75 0
31.75 0.75 0
32.75 0.75 0
33.75 0.75 0
34.75 0.75 0
35.75 0.75 0
36.75 0.75 0
37.75 0.75 0
38.75 0.75 0
39.75 0.75 0
40.75 0.75 0
41.75 0.75 0
42.75 0.75 0
43.75 0.75 0
44.75 0.75 0
45.75 0.75 0
46.75 0.75 0
47.75 0.75 0
48.75 0.75 0
49.75 0.75 0
0.25 1.25 0
1.25 1.25 0
2.25 1.25 0
3.25 1.25 0
4.25 1.25 0
5.25 1.25 0
6.25 1.25 0
7.25 1.25 0
8.25 1.25 0
9.25 1.25 0
10.25 1.25 0
11.25 1.25 0
12.25 1.25 0
13.25 1.25 0
14.25 1.25 0
15.25 1.25 0
16.25 1.25 0
17.25 1.25 0
18.25 1.25 0
19.25 1.25 0
20.25 1.25 0
21.25 1.25 0
22.25 1.25 0
23.25 1.25 0
24.25 1.25 0
25.25 1.25 0
26.25 1.25 0
27.25 1.25 0
28.25 1.25 0
29.25 1.25 0
30.25 1.25 0
31.25 1.25 0
32.25 1.25 0
33.25 1.25 0
34.25 1.25 0
35.25 1.25 0
36.25 1.25 0
37.25 1.25 0
38.25 1.25 0
39.25 1.25 0
40.25 1.25 0
41.25 1.25 0
42.25 1.25 0
43.25 1.25 0
44.25 1.25 0
45.25 1.25 0
46.25 1.25 0
47.25 1.25 0
48.25 1.25 0
49.25 1.25 0
0.75 1.75 0
1.75 1.75 0
2.75 1.75 0
3.75 1.75 0
4.75 1.75 0
5.75 1.75 0
6.75 1.75 0
7.75 1.75 0
8.75 1.75 0
9.75 1.75 0
10.75 1.75 0
11.75 1.75 0
12.75 1.75 0
13.75 1.75 0
14.75 1.75 0
15.75 1.75 0
16.75 1.75 0
17.75 1.75 0
18.75 1.75 0
19.75 1.75 0
20.75 1.75 0
21.75 1.75 0
22.75 1.75 0
23.75 1.75 0
24.75 1.75 0
25.75 1.75 0
26.75 1.75 0
27.75 1.75 0
28.75 1.75 0
29.75 1.75 0
30.75 1.75 0
31.75 1.75 0
32.75 1.75 0
33.75 1.75 0
34.75 1.75 0
35.75 1.75 0
36.75 1.75 0
37.75 1.75 0
38.75 1.75 0
39.75 1.75 0
40.75 1.75 0
41.75 1.75 0
42.75 1.75 0
43.75 1.75 0
44.75 1.75 0
45.75 1.75 0
46.75 1.75 0
47.75 1.75 0
48.75 1.75 0
49.75 1.75 0
0.25 2.25 0
1.25 2.25 0
2.25 2.25 0
3.25 2.25 0
4.25 2.25 0
5.25 2.25 0
6.25 2.25 0
7.25 2.25 0
8.25 2.25 0
9.25 2.25 0
10.25 2.25 0
11.25 2.25 0
12.25 2.25 0
13.25 2.25 0
14.25 2.25 0
15.25 2.25 0
16.25 2.25 0
17.25 2.25 0
18.25 2.25 0
19.25 2.25 0
20.25 2.25 0
21.25 2.25 0
22.25 2.25 0
23.25 2.25 0
24.25 2.25 0
25.25 2.25 0
26.25 2.25 0
27.25 2.25 0
28.25 2.25 0
29.25 2.25 0
30.25 2.25 0
31.25 2.25 0
32.25 2.25 0
33.25 2.25 0
34.25 2.25 0
35.25 2.25 0
36.25 2.25 0
37.25 2.25 0
38.25 2.25 0
39.25 2.25 0
40.25 2.25 0
41.25 2.25 0
42.25 2.25 0
43.25 2.25 0
44.25 2.25 0
45.25 2.25 0
46.25 2.25 0
47.25 2.25 0
48.25 2.25 0
49.25 2.25 0
0.75 2.75 0
1.75 2.75 0
2.75 2.75 0
3.75 2.75 0
4.75 2.75 0
5.75 2.75 0
6.75 2.75 0
7.75 2.75 0
8.75 2.75 0
9.75 2.75 0
10.75 2.75 0
11.75 2.75 0
12.75 2.75 0
13.75 2.75 0
14.75 2.75 0
15.75 2.75 0
16.75 2.75 0
17.75 2.75 0
18.75 2.75 0
19.75 2.75 0
20.75 2.75 0
21.75 2.75 0
22.75 2.75 0
23.75 2.75 0
24.75 2.75 0
25.75 2.75 0
26.75 2.75 0
27.75 2.75 0
28.75 2.75 0
29.75 2.75 0
30.75 2.75 0
31.75 2.75 0
32.75 2.75 0
33.75 2.75 0
34.75 2.75 0
35.75 2.75 0
36.75 2.75 0
37.75 2.75 0
38.75 2.75 0
39.75 2.75 0
40.75 2.75 0
41.75 2.75 0
42.75 2.75 0
43.75 2.75 0
44.75 2.75 0
45.75 2.75 0
46.75 2.75 0
47.75 2.75 0
48.75 2.75 0
49.75 2.75 0
0.25 3.25 0
1.25 3.25 0
2.25 3.25 0
3.25 3.25 0
4.25 3.25 0
5.25 3.25 0
6.25 3.25 0
7.25 3.25 0
8.25 3.25 0
9.25 3.25 0
10.25 3.25 0
11.25 3.25 0
12.25 3.25 0
13.25 3.25 0
14.25 3.25 0
15.25 3.25 0
16.25 3.25 0
17.25 3.25 0
18.25 3.25 0
19.25 3.25 0
20.25 3.25 0
21.25 3.25 0
22.25 3.25 0
23.25 3.25 0
24.25 3.25 0
25.25 3.25 0
26.25 3.25 0
27.25 3.25 0
28.25 3.25 0
29.25 3.25 0
30.25 3.25 0
31.25 3.25 0
32.25 3.25 0
33.25 3.25 0
34.25 3.25 0
35.25 3.25 0
36.25 3.25 0
37.25 3.25 0
38.25 3.25 0
39.25 3.25 0
40.25 3.25 0
41.25 3.25 0
42.25 3.25 0
43.25 3.25 0
44.25 3.25 0
45.25 3.25 0
46.25 3.25 0
47.25 3.25 0
48.25 3.25 0
49.25 3.25 0
0.75 3.75 0
1.75 3.75 0
2.75 3.75 0
3.75 3.75 0
4.75 3.75 0
5.75 3.75 0
6.75 3.75 0
7.75 3.75 0
8.75 3.75 0
9.75 3.75 0
10.75 3.75 0
11.75 3.75 0
12.75 3.75 0
13.75 3.75 0
14.75 3.75 0
15.75 3.75 0
16.75 3.75 0
17.75 3.75 0
18.75 3.75 0
19.75 3.75 0
20.75 3.75 0
21.75 3.75 0
22.75 3.75 0
23.75 3.75 0
24.75 3.75 0
25.75 3.75 0
26.75 3.75 0
27.75 3.75 0
28.75 3.75 0
29.75 3.75 0
30.75 3.75 0
31.75 3.75 0
32.75 3.75 0
33.75 3.75 0
34.75 3.75 0
35.75 3.75 0
36.75 3.75 0
37.75 3.75 0
38.75 3.75 0
39.75 3.75 0
40.75 3.75 0
41.75 3.75 0
42.75 3.75 0
43.75 3.75 0
44.75 3.75 0
45.75 3.75 0
46.75 3.75 0
47.75 3.75 0
48.75 3.75 0
49.75 3.75 0
0.25 4.25 0
1.25 4.25 0
2.25 4.25 0
3.25 4.25 0
4.25 4.25 0
5.25 4.25 0
6.25 4.25 0
7.25 4.25 0
8.25 4.25 0
9.25 4.25 0
10.25 4.25 0
11.25 4.25 0
12.25 4.25 0
13.25 4.25 0
14.25 4.25 0
15.25 4.25 0
16.25 4.25 0
17.25 4.25 0
18.25 4.25 0
19.25 4.25 0
20.25 4.25 0
21.25 4.25 0
22.25 4.25 0
23.25 4.25 0
24.25 4.25 0
25.25 4.25 0
26.25 4.25 0
27.25 4.25 0
28.25 4.25 0
29.25 4.25 0
30.25 4.25 0
31.25 4.25 0
32.25 4.25 0
33.25 4.25 0
34.25 4.25 0
35.25 4.25 0
36.25 4.25 0
37.25 4.25 0
38.25 4.25 0
39.25 4.25 0
40.25 4.25 0
41.25 4.25 0
42.25 4.25 0
43.25 4.25 0
44.25 4.25 0
45.25 4.25 0
46.25 4.25 0
47.25 4.25 0
48.25 4.25 0
49.25 4.25 0
0.75 4.75 0
1.75 4.75 0
2.75 4.75 0
3.75 4.75 0
4.75 4.75 0
5.75 4.75 0
6.75 4.75 0
7.75 4.75 0
8.75 4.75 0
9.75 4.75 0
10.75 4.75 0
11.75 4.75 0
12.75 4.75 0
13.75 4.75 0
14.75 4.75 0
15.75 4.75 0
16.75 4.75 0
17.75 4.75 0
18.75 4.75 0
19.75 4.75 0
20.75 4.75 0
21.75 4.75 0
22.75 4.75 0
23.75 4.75 0
24.75 4.75 0
25.75 4.75 0
26.75 4.75 0
27.75 4.75 0
28.75 4.75 0
29.75 4.75 0
30.75 4.75 0
31.75 4.75 0
32.75 4.75 0
33.75 4.75 0
34.75 4.75 0
35.75 4.75 0
36.75 4.75 0
37.75 4.75 0
38.75 4.75 0
39.75 4.75 0
40.75 4.75 0
41.75 4.75 0
42.75 4.75 0
43.75 4.75 0
44.75 4.75 0
45.75 4.75 0
46.75 4.75 0
47.75 4.75 0
48.75 4.75 0
49.75 4.75 0
0.25 5.25 0
1.25 5.25 0
2.25 5.25 0
3.25 5.25 0
4.25 5.25 0
5.25 5.25 0
6.25 5.25 0
7.25 5.25 0
8.25 5.25 0
9.25 5.25 0
10.25 5.25 0
11.25 5.25 0
12.25 5.25 0
13.25 5.25 0
14.25 5.25 0
15.25 5.25 0
16.25 5.25 0
17.25 5.25 0
18.25 5.25 0
19.25 5.25 0
20.25 5.25 0
21.25 5.25 0
22.25 5.25 0
23.25 5.25 0
24.25 5.25 0
25.25 5.25 0
26.25 5.25 0
27.25 5.25 0
28.25 5.25 0
29.25 5.25 0
30.25 5.25 0
31.25 5.25 0
32.25 5.25 0
33.25 5.25 0
34.25 5.25 0
35.25 5.25 0
36.25 5.25 0
37.25 5.25 0
38.25 5.25 0
39.25 5.25 0
40.25 5.25 0
41.25 5.25 0
42.25 5.25 0
43.25 5.25 0
44.25 5.25 0
45.25 5.25 0
46.25 5.25 0
47.25 5.25 0
48.25 5.25 0
49.25 5.25 0
0.75 5.75 0
1.75 5.75 0
2.75 5.75 0
3.75 5.75 0
4.75 5.75 0
5.75 5.75 0
6.75 5.75 0
7.75 5.75 0
8.75 5.75 0
9.75 5.75 0
10.75 5.75 0
11.75 5.75 0
12.75 5.75 0
13.75 5.75 0
14.75 5.75 0
15.75 5.75 0
16.75 5.75 0
17.75 5.75 0
18.75 5.75 0
19.75 5.75 0
20.75 5.75 0
21.75 5.75 0
22.75 5.75 0
23.75 5.75 0
24.75 5.75 0
25.75 5.75 0
26.75 5.75 0
27.75 5.75 0
28.75 5.75 0
29.75 5.75 0
30.75 5.75 0
31.75 5.75 0
32.75 5.75 0
33.75 5.75 0
34.75 5.75 0
35.75 5.75 0
36.75 5.75 0
37.75 5.75 0
38.75 5.75 0
39.75 5.75 0
40.75 5.75 0
41.75 5.75 0
42.75 5.75 0
43.75 5.75 0
44.75 5.75 0
45.75 5.75 0
46.75 5.75 0
47.75 5.75 0
48.75 5.75 0
49.75 5.75 0
0.25 6.25 0
1.25 6.25 0
2.25 6.25 0
3.25 6.25 0
4.25 6.25 0
5.25 6.25 0
6.25 6.25 0
7.25 6.25 0
8.25 6.25 0
9.25 6.25 0
10.25 6.25 0
11.25 6.25 0
12.25 6.25 0
13.25 6.25 0
14.25 6.25 0
15.25 6.25 0
16.25 6.25 0
17.25 6.25 0
18.25 6.25 0
19.25 6.25 0
20.25 6.25 0
21.25 6.25 0
22.25 6.25 0
23.25 6.25 0
24.25 6.25 0
25.25 6.25 0
26.25 6.25 0
27.25 6.25 0
28.25 6.25 0
29.25 6.25 0
30.25 6.25 0
31.25 6.25 0
32.25 6.25 0
33.25 6.25 0
34.25 6.25 0
35.25 6.25 0
36.25 6.25 0
37.25 6.25 0
38.25 6.25 0
39.25 6.25 0
40.25 6.25 0
41.25 6.25 0
42.25 6.25 0
43.25 6.25 0
44.25 6.25 0
45.25 6.25 0
46.25 6.25 0
47.25 6.25 0
48.25 6.25 0
49.25 6.25 0
0.75 6.75 0
1.75 6.75 0
2.75 6.75 0
3.75 6.75 0
4.75 6.75 0
5.75 6.75 0
6.75 6.75 0
7.75 6.75 0
8.75 6.75 0
9.75 6.75 0
10.75 6.75 0
11.75 6.75 0
12.75 6.75 0
13.75 6.75 0
14.75 6.75 0
15.75 6.75 0
16.75 6.75 0
17.75 6.75 0
18.75 6.75 0
19.75 6.75 0
20.75 6.75 0
21.75 6.75 0
22.75 6.75 0
23.75 6.75 0
24.75 6.75 0
25.75 6.75 0
26.75 6.75 0
27.75 6.75 0
28.75 6.75 0
29.75 6.75 0
30.75 6.75 0
31.75 6.75 0
32.75 6.75 0
33.75 6.75 0
34.75 6.75 0
35.75 6.75 0
36.75 6.75 0
37.75 6.75 0
38.75 6.75 0
39.75 6.75 0
40.75 6.75 0
41.75 6.75 0
42.75 6.75 0
43.75 6.75 0
44.75 6.75 0
45.75 6.75 0
46.75 6.75 0
47.75 6.75 0
48.75 6.75 0
49.75 6.75 0
0.25 7.25 0
1.25 7.25 0
2.25 7.25 0
3.25 7.25 0
4.25 7.25 0
5.25 7.25 0
6.25 7.25 0
7.25 7.25 0
8.25 7.25 0
9.25 7.25 0
10.25 7.25 0
11.25 7.25 0
12.25 7.25 0
13.25 7.25 0
14.25 7.25 0
15.25 7.25 0
16.25 7.25 0
17.25 7.25 0
18.25 7.25 0
19.25 7.25 0
20.25 7.25 0
21.25 7.25 0
22.25 7.25 0
23.25 7.25 0
24.25 7.25 0
25.25 7.25 0
26.25 7.25 0
27.25 7.25 0
28.25 7.25 0
29.25 7.25 0
30.25 7.25 0
31.25 7.25 0
32.25 7.25 0
33.25 7.25 0
34.25 7.25 0
35.25 7.25 0
36.25 7.25 0
37.25 7.25 0
38.25 7.25 0
39.25 7.25 0
40.25 7.25 0
41.25 7.25 0
42.25 7.25 0
43.25 7.25 0
44.25 7.25 0
45.25 7.25 0
46.25 7.25 0
47.25 7.25 0
48.25 7.25 0
49.25 7.25 0
0.75 7.75 0
1.75 7.75 0
2.75 7.75 0
3.75 7.75 0
4.75 7.75 0
5.75 7.75 0
6.75 7.75 0
7.75 7.75 0
8.75 7.75 0
9.75 7.75 0
10.75 7.75 0
11.75 7.75 0
12.75 7.75 0
13.75 7.75 0
14.75 7.75 0
15.75 7.75 0
16.75 7.75 0
17.75 7.75 0
18.75 7.75 0
19.75 7.75 0
20.75 7.75 0
21.75 7.75 0
[...]
POINT_DATA 5000
VECTORS velocity float
-0.0469358 -0.0469358 0.997795
0.00357843 -0.121639 0.992568
0.0927451 -0.211059 0.973063
0.198915 -0.328233 0.923415
0.302725 -0.468212 0.830142
0.383858 -0.614325 0.68939
0.427192 -0.74626 0.510492
0.426683 -0.848945 0.311824
0.384201 -0.916223 0.11369
0.306422 -0.949565 -0.0665754
0.20226 -0.955068 -0.216646
0.0812329 -0.940665 -0.329469
-0.0475514 -0.914098 -0.402696
-0.176085 -0.88168 -0.437762
-0.297924 -0.847742 -0.438834
-0.408454 -0.814618 -0.411781
-0.504928 -0.78301 -0.36324
-0.586315 -0.75254 -0.299864
-0.652974 -0.722319 -0.227773
-0.706246 -0.691415 -0.152189
-0.748032 -0.659148 -0.077275
-0.780435 -0.625208 -0.00610786
-0.805513 -0.589613 0.0592039
-0.825156 -0.552587 0.117324
-0.84104 -0.514403 0.167455
-0.85462 -0.475281 0.209122
-0.867132 -0.435333 0.242005
-0.879568 -0.394573 0.265841
-0.892638 -0.352962 0.280383
-0.90672 -0.310473 0.285423
-0.921822 -0.267141 0.280856
-0.937576 -0.223105 0.266787
-0.953277 -0.178629 0.243628
-0.967982 -0.134094 0.2122
-0.980667 -0.0899942 0.173764
-0.990404 -0.0469083 0.129997
-0.996545 -0.00546501 0.082873
-0.998836 0.0337197 0.0344836
-0.997451 0.0701333 -0.0131764
-0.992913 0.103483 -0.0584309
-0.985932 0.133837 -0.100133
-0.977148 0.161785 -0.137865
-0.966849 0.188605 -0.172135
-0.954636 0.216382 -0.204571
-0.939062 0.247917 -0.238116
-0.917222 0.286219 -0.277096
-0.884307 0.333609 -0.32666
-0.833134 0.391413 -0.390748
-0.754036 0.460262 -0.468603
-0.639583 0.536537 -0.550509
-0.0665113 -0.0665113 0.995566
0.0197021 -0.146399 0.989029
0.135458 -0.249918 0.958745
0.259221 -0.37851 0.888558
0.367951 -0.521548 0.769805
0.442264 -0.660343 0.606918
0.471912 -0.777567 0.415557
0.456096 -0.863443 0.215505
0.400066 -0.91615 0.0248226
0.311913 -0.939336 -0.142685
0.200676 -0.939412 -0.277909
0.0753786 -0.923525 -0.376058
-0.0555466 -0.898213 -0.436038
-0.18472 -0.868612 -0.459773
-0.306203 -0.83811 -0.451454
-0.415762 -0.808372 -0.416745
-0.510944 -0.779671 -0.362007
-0.590945 -0.75138 -0.293619
-0.656299 -0.722484 -0.217459
-0.708468 -0.692008 -0.138559
-0.749422 -0.659283 -0.0609358
-0.781292 -0.624042 0.0124178
-0.80615 -0.586356 0.079427
-0.825901 -0.546479 0.13874
-0.842248 -0.504684 0.189507
-0.856677 -0.461153 0.231178
-0.870422 -0.415943 0.263357
-0.884412 -0.36902 0.285725
-0.899202 -0.320333 0.29803
-0.91492 -0.269888 0.300137
-0.931248 -0.217812 0.292123
-0.947467 -0.164391 0.274377
-0.962564 -0.110082 0.247695
-0.975404 -0.0555168 0.213319
-0.984938 -0.00149481 0.172904
-0.990406 0.0510425 0.128415
-0.991497 0.101075 0.0819635
-0.988404 0.147614 0.0356109
-0.981772 0.189857 -0.00882479
-0.972528 0.227362 -0.0499593
-0.961616 0.260233 -0.0870225
-0.949685 0.289293 -0.120032
-0.936747 0.316246 -0.149979
-0.921853 0.343702 -0.179042
-0.902786 0.37487 -0.210832
-0.875776 0.412693 -0.250401
-0.835116 0.458964 -0.303205
-0.772183 0.514516 -0.372835
-0.674775 0.578125 -0.458748
-0.536537 0.639583 -0.550509
-0.121639 0.00357843 0.992568
-0.0601976 -0.0601976 0.99637
0.0558803 -0.145878 0.987723
0.193959 -0.259262 0.946131
0.329275 -0.395508 0.85741
0.437361 -0.539621 0.719392
0.501926 -0.672815 0.543499
0.518064 -0.781139 0.348471
0.489201 -0.858636 0.15306
0.42272 -0.905838 -0.0276581
0.327221 -0.927062 -0.182981
0.211357 -0.928239 -0.306104
0.0834332 -0.915522 -0.39352
-0.0488246 -0.894412 -0.444571
-0.17857 -0.869209 -0.461074
-0.300198 -0.842726 -0.446872
-0.409661 -0.816286 -0.407253
-0.504617 -0.789974 -0.348285
-0.58435 -0.763067 -0.276159
-0.649484 -0.734505 -0.196654
-0.701568 -0.703299 -0.114772
-0.742648 -0.66879 -0.0345514
-0.774907 -0.630747 0.0409597
-0.800459 -0.589283 0.109597
-0.821243 -0.544696 0.1699
-0.83899 -0.497292 0.2209
-0.855181 -0.447274 0.261939
-0.870978 -0.394734 0.292545
-0.887139 -0.339709 0.312383
-0.903938 -0.282267 0.321282
-0.921134 -0.222593 0.319318
-0.938012 -0.161038 0.306921
-0.953503 -0.0981413 0.284956
-0.966387 -0.0346352 0.254749
-0.975524 0.0285514 0.218031
-0.980096 0.0902997 0.176799
-0.979779 0.149345 0.13315
-0.974826 0.204386 0.0891109
-0.966019 0.254259 0.046478
-0.954499 0.29814 0.00667389
-0.941492 0.33575 -0.0293993
-0.927974 0.367533 -0.0615075
-0.914318 0.394816 -0.090244
-0.899967 0.4199 -0.117228
-0.883176 0.445946 -0.145371
-0.860811 0.476364 -0.179117
-0.828146 0.513787 -0.224045
-0.778093 0.559719 -0.285106
-0.69945 0.614636 -0.364682
-0.578125 0.674775 -0.458748
-0.146399 0.0197021 0.989029
-0.0392906 -0.0392906 0.998455
0.10596 -0.130281 0.985799
0.26337 -0.251699 0.931281
0.405374 -0.393472 0.825137
0.508549 -0.537736 0.672471
0.561621 -0.666937 0.48967
0.56483 -0.770307 0.295965
0.524644 -0.84447 0.107789
0.449523 -0.891062 -0.062749
0.34797 -0.914288 -0.207352
0.228041 -0.919327 -0.320679
0.0973641 -0.911413 -0.399807
-0.0368701 -0.895248 -0.444039
-0.168128 -0.874563 -0.454833
-0.290923 -0.851825 -0.435613
-0.401214 -0.828173 -0.391353
-0.496649 -0.803605 -0.327962
-0.576549 -0.777357 -0.25161
-0.641642 -0.748347 -0.168146
-0.693622 -0.715579 -0.0826785
-0.734685 -0.678408 0.000628126
-0.767154 -0.636631 0.0785905
-0.793249 -0.590409 0.148906
-0.814992 -0.540089 0.20998
-0.834143 -0.486034 0.260723
-0.852135 -0.42852 0.300396
-0.869967 -0.367752 0.328506
-0.888107 -0.303935 0.344804
-0.90643 -0.237365 0.349346
-0.924249 -0.168497 0.342596
-0.940448 -0.0979692 0.325513
-0.953706 -0.0266034 0.299561
-0.962773 0.0445852 0.26661
-0.96674 0.114376 0.228764
-0.965252 0.181352 0.188147
-0.95861 0.243993 0.146744
-0.947733 0.300844 0.10628
-0.933984 0.350759 0.0681302
-0.918885 0.393126 0.0332156
-0.903749 0.428059 0.00188919
-0.889312 0.456549 -0.0262024
-0.875395 0.480572 -0.052291
-0.860639 0.503093 -0.0787259
-0.842355 0.52773 -0.109266
-0.816425 0.557879 -0.149071
-0.776883 0.595874 -0.203441
-0.714437 0.643148 -0.275572
-0.614636 0.69945 -0.364682
-0.460262 0.754036 -0.468603
-0.211059 0.0927451 0.973063
-0.145878 0.0558803 0.987723
-0.00413374 -0.00413374 0.999983
0.167677 -0.100567 0.980699
0.34012 -0.228904 0.912097
0.483825 -0.374899 0.790799
0.579008 -0.519413 0.628459
0.620205 -0.646809 0.443828
0.611806 -0.748867 0.254738
0.562073 -0.823694 0.074855
0.479721 -0.873174 -0.0862243
0.372808 -0.900996 -0.221858
0.24876 -0.911529 -0.327464
0.114674 -0.909232 -0.400184
-0.0225623 -0.898221 -0.438964
-0.156479 -0.881866 -0.444777
-0.281483 -0.862447 -0.420657
-0.393379 -0.841023 -0.371393
-0.489729 -0.81756 -0.302921
-0.569896 -0.791279 -0.221578
-0.634773 -0.761091 -0.133432
-0.686294 -0.726003 -0.0438156
-0.726916 -0.685385 0.0429063
-0.759189 -0.639071 0.123372
-0.785515 -0.587276 0.195124
-0.808018 -0.530423 0.256435
-0.828462 -0.468971 0.306132
-0.848148 -0.403341 0.343454
-0.867789 -0.333943 0.368
-0.88743 -0.261251 0.379759
-0.906451 -0.185872 0.379206
-0.923707 -0.108577 0.367391
-0.937769 -0.0302913 0.345937
-0.947245 0.0479004 0.316912
-0.951098 0.124728 0.282587
-0.948895 0.198707 0.24518
-0.940941 0.268179 0.206663
-0.928263 0.331474 0.168679
-0.912439 0.387165 0.13251
-0.895293 0.434331 0.099028
-0.878504 0.472782 0.0686194
-0.863193 0.503202 0.0410651
-0.849568 0.527255 0.0153888
-0.836646 0.547646 -0.0103496
-0.822098 0.567986 -0.039322
-0.802205 0.592179 -0.0760958
-0.771691 0.623409 -0.125917
-0.72277 0.66376 -0.192422
-0.643148 0.714437 -0.275572
-0.514516 0.772183 -0.372835
-0.249918 0.135458 0.958745
-0.130281 0.10596 0.985799
0.0437446 0.0437446 0.998085
0.23828 -0.0584521 0.969436
0.420188 -0.19301 0.886673
0.560892 -0.342574 0.753687
0.646267 -0.488043 0.586645
0.676235 -0.615871 0.40424
0.657946 -0.719644 0.221854
0.60037 -0.798127 0.050498
0.511919 -0.852939 -0.102145
0.400039 -0.887058 -0.230429
0.271598 -0.90407 -0.329987
0.133352 -0.907797 -0.397646
-0.00787343 -0.901939 -0.431791
-0.145425 -0.889654 -0.43286
-0.273405 -0.873141 -0.403577
-0.387349 -0.853439 -0.348717
-0.484706 -0.830511 -0.274429
-0.564935 -0.803577 -0.187385
-0.629191 -0.771545 -0.0940016
-0.67977 -0.733425 8.58716e-05
-0.719493 -0.688609 0.0902651
-0.751227 -0.636975 0.172976
-0.777589 -0.57882 0.245606
-0.80079 -0.514683 0.306328
-0.822514 -0.445195 0.353938
-0.843793 -0.37102 0.387761
-0.864899 -0.292879 0.407642
-0.885329 -0.21161 0.414021
-0.903933 -0.128176 0.408016
-0.919175 -0.0436572 0.391422
-0.929504 0.0407752 0.366551
-0.933716 0.123821 0.335921
-0.931257 0.203987 0.301911
-0.922388 0.27957 0.266535
-0.908202 0.348769 0.231365
-0.890462 0.409933 0.197567
-0.871294 0.461865 0.165915
-0.852755 0.504087 0.136767
-0.836388 0.536995 0.109964
-0.822816 0.561962 0.0846945
-0.811447 0.58141 0.0593044
-0.800294 0.598801 0.031076
-0.785943 0.618286 -0.00397484
-0.763529 0.643773 -0.0507917
-0.726245 0.678014 -0.113428
-0.66376 0.72277 -0.192422
-0.559719 0.778093 -0.285106
-0.391413 0.833134 -0.390748
-0.328233 0.198915 0.923415
-0.259262 0.193959 0.946131
-0.100567 0.167677 0.980699
0.102259 0.102259 0.989488
0.314001 -0.00614407 0.949403
0.499214 -0.146435 0.854015
0.633249 -0.299291 0.713737
0.708345 -0.446611 0.546614
0.72851 -0.57681 0.369544
0.702282 -0.684634 0.195132
0.63851 -0.768943 0.0321202
0.544964 -0.830791 -0.113141
0.428432 -0.872353 -0.235469
0.295336 -0.896479 -0.330305
0.152289 -0.90646 -0.393876
0.00629023 -0.905706 -0.42386
-0.135605 -0.897263 -0.420156
-0.26703 -0.883317 -0.385286
-0.383172 -0.86492 -0.324179
-0.481387 -0.842041 -0.243381
-0.561307 -0.813892 -0.150048
-0.624474 -0.779376 -0.0510468
-0.673665 -0.737501 0.0476219
-0.712173 -0.687685 0.141067
-0.743233 -0.629877 0.225522
-0.769673 -0.5645 0.298235
-0.793707 -0.492292 0.35732
-0.816791 -0.41417 0.40164
-0.839508 -0.331168 0.43076
-0.861528 -0.244437 0.444995
-0.881727 -0.155235 0.445488
-0.898475 -0.0648792 0.434205
-0.91004 0.0253036 0.413747
-0.915028 0.113962 0.386957
-0.912729 0.199628 0.356474
-0.903324 0.280631 0.324426
-0.887924 0.355135 0.292354
-0.868438 0.421353 0.261299
-0.847268 0.477867 0.231906
-0.826857 0.523932 0.204454
-0.809192 0.55968 0.178791
-0.795349 0.58621 0.154199
-0.785157 0.605665 0.129224
-0.776988 0.621283 0.101479
-0.767703 0.637243 0.0674745
-0.752705 0.657966 0.0227005
-0.725769 0.686935 -0.0371488
-0.678014 0.726245 -0.113428
-0.595874 0.776883 -0.203441
-0.458964 0.835116 -0.303205
-0.37851 0.259221 0.888558
-0.251699 0.26337 0.931281
-0.0584521 0.23828 0.969436
0.168312 0.168312 0.971258
0.390381 0.0532863 0.91911
0.573204 -0.09222 0.814207
0.698394 -0.248139 0.671322
0.763871 -0.398018 0.508018
0.776148 -0.531979 0.338514
0.744014 -0.645442 0.172764
0.675645 -0.737014 0.0177113
0.577978 -0.80701 -0.121148
0.457153 -0.856759 -0.238693
0.319263 -0.888407 -0.329854
0.170965 -0.904788 -0.390038
0.0196384 -0.909103 -0.416108
-0.127061 -0.904353 -0.407433
-0.262161 -0.892742 -0.366448
-0.380455 -0.875332 -0.298408
-0.479238 -0.852085 -0.210434
-0.558425 -0.822189 -0.110303
-0.620076 -0.784523 -0.0054242
-0.667575 -0.738093 0.097783
-0.704769 -0.68236 0.194126
-0.73528 -0.61739 0.279629
-0.762072 -0.543823 0.351429
-0.787207 -0.462727 0.407661
-0.811706 -0.375459 0.447397
-0.835497 -0.28357 0.470673
-0.857529 -0.188735 0.478564
-0.876082 -0.0926405 0.473179
-0.889234 0.00311906 0.457442
-0.895372 0.0970692 0.434611
-0.893606 0.187754 0.407697
-0.884009 0.273591 0.379045
-0.867679 0.352807 0.350228
-0.846627 0.423581 0.322184
-0.823493 0.484348 0.29541
-0.801091 0.534148 0.270071
-0.781865 0.572873 0.245976
-0.767375 0.601372 0.222458
-0.757907 0.621526 0.198195
-0.752227 0.636319 0.171035
-0.747484 0.649815 0.137869
-0.739286 0.666708 0.0946444
-0.721741 0.69117 0.0370572
-0.686935 0.725769 -0.0371488
-0.623409 0.771691 -0.125917
-0.513787 0.828146 -0.224045
-0.333609 0.884307 -0.32666
-0.468212 0.302725 0.830142
-0.395508 0.329275 0.85741
-0.228904 0.34012 0.912097
-0.00614407 0.314001 0.949403
0.237943 0.237943 0.941683
0.463099 0.116212 0.878655
0.63922 -0.0337114 0.768285
0.754874 -0.192246 0.627061
0.812164 -0.344946 0.470534
0.81867 -0.483378 0.310042
0.782642 -0.603317 0.153229
0.711241 -0.702925 0.0056572
0.610464 -0.781685 -0.127679
0.485818 -0.840055 -0.24143
0.343163 -0.879485 -0.329767
0.18935 -0.902392 -0.387085
0.0323288 -0.911814 -0.409329
-0.119467 -0.910727 -0.395353
-0.258333 -0.901343 -0.347627
-0.378631 -0.884704 -0.271914
-0.477654 -0.860721 -0.176085
-0.555719 -0.828528 -0.0686839
-0.615548 -0.786966 0.0422471
-0.661258 -0.735045 0.149824
-0.697303 -0.67231 0.248532
-0.727644 -0.599037 0.334198
-0.755232 -0.516226 0.4039
-0.781745 -0.42546 0.455915
-0.807511 -0.328729 0.489759
-0.831625 -0.228247 0.506264
-0.852294 -0.126244 0.507599
-0.867384 -0.024753 0.497023
-0.875032 0.0744957 0.478298
-0.874145 0.169999 0.454941
-0.864675 0.260279 0.429642
-0.847685 0.343708 0.404097
-0.825255 0.418536 0.379187
-0.800222 0.483149 0.355263
-0.775743 0.536437 0.332353
-0.754709 0.578091 0.310201
-0.739184 0.608746 0.288158
-0.729948 0.630044 0.264992
-0.726194 0.644714 0.238715
-0.725395 0.656629 0.206497
-0.723356 0.670548 0.164685
-0.714388 0.691179 0.10919
-0.69117 0.721741 0.0370572
-0.643773 0.763529 -0.0507917
-0.557879 0.816425 -0.149071
-0.412693 0.875776 -0.250401
-0.521548 0.367951 0.769805
-0.393472 0.405374 0.825137
-0.19301 0.420188 0.886673
0.0532863 0.390381 0.91911
0.306972 0.306972 0.900853
0.528866 0.179096 0.829594
0.695733 0.025949 0.717831
0.802287 -0.134402 0.581611
0.853174 -0.289633 0.433827
0.856003 -0.432539 0.283141
0.818004 -0.559084 0.135256
0.745121 -0.666908 -0.00534881
0.642327 -0.754634 -0.133956
0.514476 -0.821825 -0.244782
0.367244 -0.869225 -0.331028
0.207794 -0.898839 -0.385889
0.0448175 -0.913536 -0.404281
-0.112292 -0.916248 -0.384553
-0.254969 -0.909133 -0.329345
-0.377112 -0.89314 -0.245127
-0.476082 -0.868068 -0.140728
-0.55274 -0.83296 -0.0256066
-0.610632 -0.786614 0.0914706
-0.654712 -0.728078 0.203112
-0.690049 -0.657068 0.303472
-0.720818 -0.574213 0.388202
-0.749709 -0.481086 0.454415
-0.777705 -0.380033 0.50075
-0.804185 -0.27389 0.527515
-0.827319 -0.165623 0.536761
-0.844735 -0.0579455 0.532039
-0.854275 0.0469528 0.517697
-0.854611 0.147397 0.497909
-0.845571 0.241988 0.475869
-0.828181 0.329305 0.453514
-0.804567 0.407769 0.431736
-0.777733 0.475822 0.410763
-0.751133 0.532285 0.390477
-0.728089 0.576704 0.37054
-0.711167 0.609533 0.350302
-0.701663 0.63221 0.328603
-0.699235 0.647233 0.303577
-0.701716 0.658248 0.272586
-0.705135 0.669944 0.232295
-0.703944 0.687349 0.178925
-0.691179 0.714388 0.10919
-0.657966 0.752705 0.0227005
-0.592179 0.802205 -0.0760958
-0.476364 0.860811 -0.179117
-0.286219 0.917222 -0.277096
-0.614325 0.383858 0.68939
-0.539621 0.437361 0.719392
-0.374899 0.483825 0.790799
-0.146435 0.499214 0.854015
0.116212 0.463099 0.878655
0.371884 0.371884 0.850532
0.585913 0.239133 0.774288
0.742529 0.0842939 0.664489
0.841042 -0.0767268 0.535501
0.887329 -0.23367 0.397549
0.888403 -0.380407 0.256965
0.850232 -0.513056 0.117808
0.777421 -0.628768 -0.0163589
0.673811 -0.725329 -0.140985
0.54352 -0.801393 -0.249709
0.392025 -0.856964 -0.334558
0.226888 -0.893593 -0.387316
0.0577173 -0.913937 -0.401732
-0.104935 -0.920794 -0.375668
-0.251496 -0.916159 -0.312095
-0.375373 -0.900767 -0.218436
-0.474093 -0.874227 -0.104707
-0.549232 -0.835464 0.0185532
-0.605317 -0.783259 0.141766
-0.648224 -0.716769 0.256999
-0.683568 -0.636017 0.358074
-0.715503 -0.542214 0.440522
-0.746098 -0.437801 0.501665
-0.775284 -0.326194 0.540862
-0.801294 -0.211267 0.559727
-0.821493 -0.0967096 0.561958
-0.833362 0.0145246 0.552536
-0.835296 0.120377 0.536461
-0.826988 0.21945 0.517622
-0.809443 0.310557 0.498354
-0.784838 0.392391 0.479645
-0.756312 0.463555 0.461636
-0.727587 0.522894 0.444071
-0.702379 0.569867 0.426516
-0.683742 0.604792 0.408318
-0.673494 0.628939 0.388384
-0.671786 0.644603 0.364953
-0.676847 0.655212 0.335523
-0.684958 0.665305 0.296987
-0.690711 0.680044 0.245884
-0.687349 0.703944 0.178925
-0.666708 0.739286 0.0946444
-0.618286 0.785943 -0.00397484
-0.52773 0.842355 -0.109266
-0.37487 0.902786 -0.210832
-0.660343 0.442264 0.606918
-0.537736 0.508549 0.672471
-0.342574 0.560892 0.753687
-0.09222 0.573204 0.814207
0.179096 0.528866 0.829594
0.430427 0.430427 0.793388
0.633885 0.294578 0.715132
0.780293 0.13976 0.609598
0.872012 -0.0205194 0.489055
0.915303 -0.177909 0.361343
0.916301 -0.327288 0.230813
0.879638 -0.465 0.100063
0.808482 -0.587844 -0.0282195
0.705383 -0.692854 -0.149624
0.573555 -0.777776 -0.2571
0.418194 -0.841811 -0.341275
0.247327 -0.885979 -0.392263
0.0716737 -0.912617 -0.402484
-0.0968237 -0.924234 -0.369346
-0.247419 -0.92247 -0.296366
-0.373022 -0.907694 -0.192216
-0.471448 -0.879239 -0.0683686
-0.545186 -0.835915 0.0633889
-0.599906 -0.776545 0.192589
-0.642428 -0.700524 0.310729
-0.678736 -0.608391 0.411312
-0.712576 -0.502271 0.489857
-0.744924 -0.385888 0.544224
-0.774309 -0.264073 0.575075
-0.797849 -0.141815 0.58594
-0.812577 -0.0232529 0.58239
-0.816533 0.0888341 0.570424
-0.809269 0.192889 0.554868
-0.791796 0.287961 0.538644
-0.766366 0.373094 0.522957
-0.736249 0.447172 0.507912
-0.705403 0.509157 0.493117
-0.677906 0.558496 0.478044
-0.657275 0.59541 0.462035
-0.645844 0.621035 0.444073
-0.644268 0.637502 0.422504
-0.6512 0.648044 0.394939
-0.663208 0.657027 0.358427
-0.675029 0.66961 0.309772
-0.680044 0.690711 0.245884
-0.670548 0.723356 0.164685
-0.637243 0.767703 0.0674745
-0.567986 0.822098 -0.039322
-0.445946 0.883176 -0.145371
-0.247917 0.939062 -0.238116
-0.74626 0.427192 0.510492
-0.672815 0.501926 0.543499
-0.519413 0.579008 0.628459
-0.299291 0.633249 0.713737
-0.0337114 0.63922 0.768285
0.239133 0.585913 0.774288
0.481682 0.481682 0.732096
0.673368 0.344701 0.654031
0.810125 0.191645 0.554048
0.896193 0.0336981 0.442383
0.937792 -0.122516 0.324862
0.940143 -0.272882 0.204122
0.906564 -0.414151 0.0813718
0.838701 -0.542999 -0.0416282
0.737582 -0.65587 -0.160646
0.605249 -0.749627 -0.267831
0.44647 -0.822596 -0.352137
0.269788 -0.875138 -0.40168
0.0872678 -0.909081 -0.407377
-0.0874841 -0.926396 -0.366248
-0.242376 -0.928098 -0.282646
-0.369839 -0.913991 -0.166855
-0.46815 -0.883066 -0.0320962
-0.540921 -0.834056 0.108426
-0.595101 -0.765943 0.243284
-0.638383 -0.678543 0.363382
-0.67676 -0.573245 0.461937
-0.712994 -0.453587 0.534695
-0.746408 -0.325135 0.580657
-0.773995 -0.194418 0.602605
-0.792247 -0.067294 0.606479
-0.798733 0.0522206 0.599416
-0.792844 0.162119 0.587466
-0.775644 0.261627 0.574394
-0.749503 0.350219 0.561776
-0.717844 0.427176 0.549745
-0.684851 0.491691 0.537791
-0.654933 0.543271 0.525281
-0.632046 0.582089 0.511557
-0.619022 0.609179 0.495695
-0.617019 0.626539 0.476167
-0.625133 0.637244 0.450697
-0.640242 0.645497 0.416443
-0.657239 0.65638 0.370408
-0.66961 0.675029 0.309772
-0.669944 0.705135 0.232295
-0.649815 0.747484 0.137869
-0.598801 0.800294 0.031076
-0.503093 0.860639 -0.0787259
-0.343702 0.921853 -0.179042
-0.777567 0.471912 0.415557
-0.666937 0.561621 0.48967
-0.488043 0.646267 0.586645
-0.248139 0.698394 0.671322
0.025949 0.695733 0.717831
0.294578 0.633885 0.715132
0.525719 0.525719 0.668759
0.705372 0.389506 0.592229
0.833153 0.239902 0.4983
0.914457 0.0860128 0.395437
0.955342 -0.0670973 0.287784
0.960233 -0.216379 0.176442
0.931231 -0.359251 0.0612154
0.868371 -0.492607 -0.0571864
0.770856 -0.612561 -0.174785
0.639181 -0.715174 -0.282796
0.477461 -0.797813 -0.368137
0.294816 -0.859985 -0.416544
0.104943 -0.902717 -0.417239
-0.0765869 -0.927064 -0.366997
-0.23617 -0.933046 -0.271384
-0.365833 -0.919673 -0.142715
-0.464517 -0.885556 0.00372476
-0.537185 -0.829442 0.153157
-0.592126 -0.750646 0.293116
-0.637647 -0.649705 0.413872
-0.679124 -0.529394 0.508462
-0.717524 -0.395443 0.573397
-0.750102 -0.255884 0.609813
-0.772753 -0.118858 0.623478
-0.782416 0.00962752 0.622682
-0.778275 0.126621 0.615025
-0.761512 0.231372 0.605447
-0.7347 0.323834 0.596111
-0.701461 0.403821 0.587266
-0.666215 0.470878 0.578301
-0.633693 0.524665 0.568471
-0.608265 0.565359 0.55712
-0.593242 0.593919 0.543437
-0.590279 0.612241 0.526053
-0.598915 0.623275 0.502821
-0.616354 0.631089 0.470993
-0.637656 0.640672 0.427708
-0.65638 0.657239 0.370408
-0.665305 0.684958 0.296987
-0.656629 0.725395 0.206497