# vtk DataFile Version 2.0
tmp/0.000.00-10.000.000.001.0071.vtk
ASCII
DATASET UNSTRUCTURED_GRID
POINTS 5000 float
0.75 0.25 0
1.75 0.25 0
2.75 0.25 0
3.75 0.25 0
4.75 0.25 0
5.75 0.25 0
6.75 0.25 0
7.75 0.25 0
8.75 0.25 0
9.75 0.25 0
10.75 0.25 0
11.75 0.25 0
12.75 0.25 0
13.75 0.25 0
14.75 0.25 0
15.75 0.25 0
16.75 0.25 0
17.75 0.25 0
18.75 0.25 0
19.75 0.25 0
20.75 0.25 0
21.75 0.25 0
22.75 0.25 0
23.75 0.25 0
24.75 0.25 0
25.75 0.25 0
26.75 0.25 0
27.75 0.25 0
28.75 0.25 0
29.75 0.25 0
30.75 0.25 0
31.75 0.25 0
32.75 0.25 0
33.75 0.25 0
34.75 0.25 0
35.75 0.25 0
36.75 0.25 0
37.75 0.25 0
38.75 0.25 0
39.75 0.25 0
40.75 0.25 0
41.75 0.25 0
42.75 0.25 0
43.75 0.25 0
44.75 0.25 0
45.75 0.25 0
46.75 0.25 0
47.75 0.25 0
48.75 0.25 0
49.75 0.25 0
0.25 0.75 0
1.25 0.75 0
2.25 0.75 0
3.25 0.75 0
4.25 0.75 0
5.25 0.75 0
6.25 0.75 0
7.25 0.75 0
8.25 0.75 0
9.25 0.75 0
10.25 0.75 0
11.25 0.75 0
12.25 0.75 0
13.25 0.75 0
14.25 0.75 0
15.25 0.75 0
16.25 0.75 0
17.25 0.75 0
18.25 0.75 0
19.25 0.75 0
20.25 0.75 0
21.25 0.75 0
22.25 0.75 0
23.25 0.75 0
24.25 0.75 0
25.25 0.75 0
26.25 0.75 0
27.25 0.75 0
28.25 0.75 0
29.25 0.75 0
30.25 0.75 0
31.25 0.75 0
32.25 0.75 0
33.25 0.75 0
34.25 0.75 0
35.25 0.75 0
36.25 0.75 0
37.25 0.75 0
38.25 0.75 0
39.25 0.75 0
40.25 0.75 0
41.25 0.75 0
42.25 0.75 0
43.25 0.75 0
44.25 0.75 0
45.25 0.75 0
46.25 0.75 0
47.25 0.75 0
48.25 0.75 0
49.25 0.75 0
0.75 1.25 0
1.75 1.25 0
2.75 1.25 0
3.75 1.25 0
4.75 1.25 0
5.75 1.25 0
6.75 1.25 0
7.75 1.25 0
8.75 1.25 0
9.75 1.25 0
10.75 1.25 0
11.75 1.25 0
12.75 1.25 0
13.75 1.25 0
14.75 1.25 0
15.75 1.25 0
16.75 1.25 0
17.75 1.25 0
18.75 1.25 0
19.75 1.25 0
20.75 1.25 0
21.75 1.25 0
22.75 1.25 0
23.75 1.25 0
24.75 1.25 0
25.75 1.25 0
26.75 1.25 0
27.75 1.25 0
28.75 1.25 0
29.75 1.25 0
30.75 1.25 0
31.75 1.25 0
32.75 1.25 0
33.75 1.25 0
34.75 1.25 0
35.75 1.25 0
36.75 1.25 0
37.75 1.25 0
38.75 1.25 0
39.75 1.25 0
40.75 1.25 0
41.75 1.25 0
42.75 1.25 0
43.75 1.25 0
44.75 1.25 0
45.75 1.25 0
46.75 1.25 0
47.75 1.25 0
48.75 1.25 0
49.75 1.25 0
0.25 1.75 0
1.25 1.75 0
2.25 1.75 0
3.25 1.75 0
4.25 1.75 0
5.25 1.75 0
6.25 1.75 0
7.25 1.75 0
8.25 1.75 0
9.25 1.75 0
10.25 1.75 0
11.25 1.75 0
12.25 1.75 0
13.25 1.75 0
14.25 1.75 0
15.25 1.75 0
16.25 1.75 0
17.25 1.75 0
18.25 1.75 0
19.25 1.75 0
20.25 1.75 0
21.25 1.75 0
22.25 1.75 0
23.25 1.75 0
24.25 1.75 0
25.25 1.75 0
26.25 1.75 0
27.25 1.75 0
28.25 1.75 0
29.25 1.75 0
30.25 1.75 0
31.25 1.75 0
32.25 1.75 0
33.25 1.75 0
34.25 1.75 0
35.25 1.75 0
36.25 1.75 0
37.25 1.75 0
38.25 1.75 0
39.25 1.75 0
40.25 1.75 0
41.25 1.75 0
42.25 1.75 0
43.25 1.75 0
44.25 1.75 0
45.25 1.75 0
46.25 1.75 0
47.25 1.75 0
48.25 1.75 0
49.25 1.75 0
0.75 2.25 0
1.75 2.25 0
2.75 2.25 0
3.75 2.25 0
4.75 2.25 0
5.75 2.25 0
6.75 2.25 0
7.75 2.25 0
8.75 2.25 0
9.75 2.25 0
10.75 2.25 0
11.75 2.25 0
12.75 2.25 0
13.75 2.25 0
14.75 2.25 0
15.75 2.25 0
16.75 2.25 0
17.75 2.25 0
18.75 2.25 0
19.75 2.25 0
20.75 2.25 0
21.75 2.25 0
22.75 2.25 0
23.75 2.25 0
24.75 2.25 0
25.75 2.25 0
26.75 2.25 0
27.75 2.25 0
28.75 2.25 0
29.75 2.25 0
30.75 2.25 0
31.75 2.25 0
32.75 2.25 0
33.75 2.25 0
34.75 2.25 0
35.75 2.25 0
36.75 2.25 0
37.75 2.25 0
38.75 2.25 0
39.75 2.25 0
40.75 2.25 0
41.75 2.25 0
42.75 2.25 0
43.75 2.25 0
44.75 2.25 0
45.75 2.25 0
46.75 2.25 0
47.75 2.25 0
48.75 2.25 0
49.75 2.25 0
0.25 2.75 0
1.25 2.75 0
2.25 2.75 0
3.25 2.75 0
4.25 2.75 0
5.25 2.75 0
6.25 2.75 0
7.25 2.75 0
8.25 2.75 0
9.25 2.75 0
10.25 2.75 0
11.25 2.75 0
12.25 2.75 0
13.25 2.75 0
14.25 2.75 0
15.25 2.75 0
16.25 2.75 0
17.25 2.75 0
18.25 2.75 0
19.25 2.75 0
20.25 2.75 0
21.25 2.75 0
22.25 2.75 0
23.25 2.75 0
24.25 2.75 0
25.25 2.75 0
26.25 2.75 0
27.25 2.75 0
28.25 2.75 0
29.25 2.75 0
30.25 2.75 0
31.25 2.75 0
32.25 2.75 0
33.25 2.75 0
34.25 2.75 0
35.25 2.75 0
36.25 2.75 0
37.25 2.75 0
38.25 2.75 0
39.25 2.75 0
40.25 2.75 0
41.25 2.75 0
42.25 2.75 0
43.25 2.75 0
44.25 2.75 0
45.25 2.75 0
46.25 2.75 0
47.25 2.75 0
48.25 2.75 0
49.25 2.75 0
0.75 3.25 0
1.75 3.25 0
2.75 3.25 0
3.75 3.25 0
4.75 3.25 0
5.75 3.25 0
6.75 3.25 0
7.75 3.25 0
8.75 3.25 0
9.75 3.25 0
10.75 3.25 0
11.75 3.25 0
12.75 3.25 0
13.75 3.25 0
14.75 3.25 0
15.75 3.25 0
16.75 3.25 0
17.75 3.25 0
18.75 3.25 0
19.75 3.25 0
20.75 3.25 0
21.75 3.25 0
22.75 3.25 0
23.75 3.25 0
24.75 3.25 0
25.75 3.25 0
26.75 3.25 0
27.75 3.25 0
28.75 3.25 0
29.75 3.25 0
30.75 3.25 0
31.75 3.25 0
32.75 3.25 0
33.75 3.25 0
34.75 3.25 0
35.75 3.25 0
36.75 3.25 0
37.75 3.25 0
38.75 3.25 0
39.75 3.25 0
40.75 3.25 0
41.75 3.25 0
42.75 3.25 0
43.75 3.25 0
44.75 3.25 0
45.75 3.25 0
46.75 3.25 0
47.75 3.25 0
48.75 3.25 0
49.75 3.25 0
0.25 3.75 0
1.25 3.75 0
2.25 3.75 0
3.25 3.75 0
4.25 3.75 0
5.25 3.75 0
6.25 3.75 0
7.25 3.75 0
8.25 3.75 0
9.25 3.75 0
10.25 3.75 0
11.25 3.75 0
12.25 3.75 0
13.25 3.75 0
14.25 3.75 0
15.25 3.75 0
16.25 3.75 0
17.25 3.75 0
18.25 3.75 0
19.25 3.75 0
20.25 3.75 0
21.25 3.75 0
22.25 3.75 0
23.25 3.75 0
24.25 3.75 0
25.25 3.75 0
26.25 3.75 0
27.25 3.75 0
28.25 3.75 0
29.25 3.75 0
30.25 3.75 0
31.25 3.75 0
32.25 3.75 0
33.25 3.75 0
34.25 3.75 0
35.25 3.75 0
36.25 3.75 0
37.25 3.75 0
38.25 3.75 0
39.25 3.75 0
40.25 3.75 0
41.25 3.75 0
42.25 3.75 0
43.25 3.75 0
44.25 3.75 0
45.25 3.75 0
46.25 3.75 0
47.25 3.75 0
48.25 3.75 0
49.25 3.75 0
0.75 4.25 0
1.75 4.25 0
2.75 4.25 0
3.75 4.25 0
4.75 4.25 0
5.75 4.25 0
6.75 4.25 0
7.75 4.25 0
8.75 4.25 0
9.75 4.25 0
10.75 4.25 0
11.75 4.25 0
12.75 4.25 0
13.75 4.25 0
14.75 4.25 0
15.75 4.25 0
16.75 4.25 0
17.75 4.25 0
18.75 4.25 0
19.75 4.25 0
20.75 4.25 0
21.75 4.25 0
22.75 4.25 0
23.75 4.25 0
24.75 4.25 0
25.75 4.25 0
26.75 4.25 0
27.75 4.25 0
28.75 4.25 0
29.75 4.25 0
30.75 4.25 0
31.75 4.25 0
32.75 4.25 0
33.75 4.25 0
34.75 4.25 0
35.75 4.25 0
36.75 4.25 0
37.75 4.25 0
38.75 4.25 0
39.75 4.25 0
40.75 4.25 0
41.75 4.25 0
42.75 4.25 0
43.75 4.25 0
44.75 4.25 0
45.75 4.25 0
46.75 4.25 0
47.75 4.25 0
48.75 4.25 0
49.75 4.25 0
0.25 4.75 0
1.25 4.75 0
2.25 4.75 0
3.25 4.75 0
4.25 4.75 0
5.25 4.75 0
6.25 4.75 0
7.25 4.75 0
8.25 4.75 0
9.25 4.75 0
10.25 4.75 0
11.25 4.75 0
12.25 4.75 0
13.25 4.75 0
14.25 4.75 0
15.25 4.75 0
16.25 4.75 0
17.25 4.75 0
18.25 4.75 0
19.25 4.75 0
20.25 4.75 0
21.25 4.75 0
22.25 4.75 0
23.25 4.75 0
24.25 4.75 0
25.25 4.75 0
26.25 4.75 0
27.25 4.75 0
28.25 4.75 0
29.25 4.75 0
30.25 4.75 0
31.25 4.75 0
32.25 4.75 0
33.25 4.75 0
34.25 4.75 0
35.25 4.75 0
36.25 4.75 0
37.25 4.75 0
38.25 4.75 0
39.25 4.75 0
40.25 4.75 0
41.25 4.75 0
42.25 4.75 0
43.25 4.75 0
44.25 4.75 0
45.25 4.75 0
46.25 4.75 0
47.25 4.75 0
48.25 4.75 0
49.25 4.75 0
0.75 5.25 0
1.75 5.25 0
2.75 5.25 0
3.75 5.25 0
4.75 5.25 0
5.75 5.25 0
6.75 5.25 0
7.75 5.25 0
8.75 5.25 0
9.75 5.25 0
10.75 5.25 0
11.75 5.25 0
12.75 5.25 0
13.75 5.25 0
14.75 5.25 0
15.75 5.25 0
16.75 5.25 0
17.75 5.25 0
18.75 5.25 0
19.75 5.25 0
20.75 5.25 0
21.75 5.25 0
22.75 5.25 0
23.75 5.25 0
24.75 5.25 0
25.75 5.25 0
26.75 5.25 0
27.75 5.25 0
28.75 5.25 0
29.75 5.25 0
30.75 5.25 0
31.75 5.25 0
32.75 5.25 0
33.75 5.25 0
34.75 5.25 0
35.75 5.25 0
36.75 5.25 0
37.75 5.25 0
38.75 5.25 0
39.75 5.25 0
40.75 5.25 0
41.75 5.25 0
42.75 5.25 0
43.75 5.25 0
44.75 5.25 0
45.75 5.25 0
46.75 5.25 0
47.75 5.25 0
48.75 5.25 0
49.75 5.25 0
0.25 5.75 0
1.25 5.75 0
2.25 5.75 0
3.25 5.75 0
4.25 5.75 0
5.25 5.75 0
6.25 5.75 0
7.25 5.75 0
8.25 5.75 0
9.25 5.75 0
10.25 5.75 0
11.25 5.75 0
12.25 5.75 0
13.25 5.75 0
14.25 5.75 0
15.25 5.75 0
16.25 5.75 0
17.25 5.75 0
18.25 5.75 0
19.25 5.75 0
20.25 5.75 0
21.25 5.75 0
22.25 5.75 0
23.25 5.75 0
24.25 5.75 0
25.25 5.75 0
26.25 5.75 0
27.25 5.75 0
28.25 5.75 0
29.25 5.75 0
30.25 5.75 0
31.25 5.75 0
32.25 5.75 0
33.25 5.75 0
34.25 5.75 0
35.25 5.75 0
36.25 5.75 0
37.25 5.75 0
38.25 5.75 0
39.25 5.75 0
40.25 5.75 0
41.25 5.75 0
42.25 5.75 0
43.25 5.75 0
44.25 5.75 0
45.25 5.75 0
46.25 5.75 0
47.25 5.75 0
48.25 5.75 0
49.25 5.75 0
0.75 6.25 0
1.75 6.25 0
2.75 6.25 0
3.75 6.25 0
4.75 6.25 0
5.75 6.25 0
6.75 6.25 0
7.75 6.25 0
8.75 6.25 0
9.75 6.25 0
10.75 6.25 0
11.75 6.25 0
12.75 6.25 0
13.75 6.25 0
14.75 6.25 0
15.75 6.25 0
16.75 6.25 0
17.75 6.25 0
18.75 6.25 0
19.75 6.25 0
20.75 6.25 0
21.75 6.25 0
22.75 6.25 0
23.75 6.25 0
24.75 6.25 0
25.75 6.25 0
26.75 6.25 0
27.75 6.25 0
28.75 6.25 0
29.75 6.25 0
30.75 6.25 0
31.75 6.25 0
32.75 6.25 0
33.75 6.25 0
34.75 6.25 0
35.75 6.25 0
36.75 6.25 0
37.75 6.25 0
38.75 6.25 0
39.75 6.25 0
40.75 6.25 0
41.75 6.25 0
42.75 6.25 0
43.75 6.25 0
44.75 6.25 0
45.75 6.25 0
46.75 6.25 0
47.75 6.25 0
48.75 6.25 0
49.75 6.25 0
0.25 6.75 0
1.25 6.75 0
2.25 6.75 0
3.25 6.75 0
4.25 6.75 0
5.25 6.75 0
6.25 6.75 0
7.25 6.75 0
8.25 6.75 0
9.25 6.75 0
10.25 6.75 0
11.25 6.75 0
12.25 6.75 0
13.25 6.75 0
14.25 6.75 0
15.25 6.75 0
16.25 6.75 0
17.25 6.75 0
18.25 6.75 0
19.25 6.75 0
20.25 6.75 0
21.25 6.75 0
22.25 6.75 0
23.25 6.75 0
24.25 6.75 0
25.25 6.75 0
26.25 6.75 0
27.25 6.75 0
28.25 6.75 0
29.25 6.75 0
30.25 6.75 0
31.25 6.75 0
32.25 6.75 0
33.25 6.75 0
34.25 6.75 0
35.25 6.75 0
36.25 6.75 0
37.25 6.75 0
38.25 6.75 0
39.25 6.75 0
40.25 6.75 0
41.25 6.75 0
42.25 6.75 0
43.25 6.75 0
44.25 6.75 0
45.25 6.75 0
46.25 6.75 0
47.25 6.75 0
48.25 6.75 0
49.25 6.75 0
0.75 7.25 0
1.75 7.25 0
2.75 7.25 0
3.75 7.25 0
4.75 7.25 0
5.75 7.25 0
6.75 7.25 0
7.75 7.25 0
8.75 7.25 0
9.75 7.25 0
10.75 7.25 0
11.75 7.25 0
12.75 7.25 0
13.75 7.25 0
14.75 7.25 0
15.75 7.25 0
16.75 7.25 0
17.75 7.25 0
18.75 7.25 0
19.75 7.25 0
20.75 7.25 0
21.75 7.25 0
22.75 7.25 0
23.75 7.25 0
24.75 7.25 0
25.75 7.25 0
26.75 7.25 0
27.75 7.25 0
28.75 7.25 0
29.75 7.25 0
30.75 7.25 0
31.75 7.25 0
32.75 7.25 0
33.75 7.25 0
34.75 7.25 0
35.75 7.25 0
36.75 7.25 0
37.75 7.25 0
38.75 7.25 0
39.75 7.25 0
40.75 7.25 0
41.75 7.25 0
42.75 7.25 0
43.75 7.25 0
44.75 7.25 0
45.75 7.25 0
46.75 7.25 0
47.75 7.25 0
48.75 7.25 0
49.75 7.25 0
0.25 7.75 0
1.25 7.75 0
2.25 7.75 0
3.25 7.75 0
4.25 7.75 0
5.25 7.75 0
6.25 7.75 0
7.25 7.75 0
8.25 7.75 0
9.25 7.75 0
10.25 7.75 0
11.25 7.75 0
12.25 7.75 0
13.25 7.75 0
14.25 7.75 0
15.25 7.75 0
16.25 7.75 0
17.25 7.75 0
18.25 7.75 0
19.25 7.75 0
20.25 7.75 0
21.25 7.75 0
[...]
POINT_DATA 5000
VECTORS velocity float
0.252326 0.185246 0.949745
0.337398 0.0870983 0.937324
0.440312 -0.0344846 0.897182
0.53977 -0.178284 0.822717
0.615737 -0.335203 0.713097
0.654131 -0.49146 0.574961
0.64934 -0.633765 0.420356
0.603359 -0.752824 0.263086
0.523055 -0.844401 0.115757
0.417429 -0.908634 -0.0117147
0.295788 -0.948606 -0.112502
0.166792 -0.968903 -0.182779
0.037995 -0.974427 -0.221467
-0.0844258 -0.969549 -0.229887
-0.195858 -0.957602 -0.211278
-0.293354 -0.94073 -0.170207
-0.375587 -0.920004 -0.111924
-0.44267 -0.895711 -0.0417798
-0.495836 -0.867701 0.0352382
-0.537065 -0.835693 0.114794
-0.568724 -0.799483 0.193339
-0.593264 -0.759047 0.268114
-0.613003 -0.71457 0.337072
-0.630005 -0.666402 0.398751
-0.646016 -0.615006 0.45214
-0.662433 -0.560905 0.496556
-0.680301 -0.504633 0.531541
-0.700295 -0.446716 0.556805
-0.722721 -0.387657 0.572186
-0.747506 -0.327937 0.577661
-0.774219 -0.268013 0.573371
-0.802102 -0.208325 0.559672
-0.830149 -0.149307 0.537179
-0.857206 -0.0913934 0.5068
-0.882109 -0.0350431 0.469739
-0.903831 0.0192585 0.427457
-0.921606 0.0710085 0.381576
-0.935028 0.119728 0.333747
-0.944072 0.165038 0.285466
-0.949036 0.206748 0.237877
-0.95042 0.244961 0.191562
-0.948739 0.280136 0.14635
-0.944305 0.313127 0.101188
-0.936972 0.345192 0.0540982
-0.92578 0.378055 0.00228471
-0.908429 0.414059 -0.0575412
-0.880451 0.456419 -0.128404
-0.834232 0.509251 -0.21147
-0.759188 0.575768 -0.303521
-0.64849 0.64849 -0.39865
0.185246 0.252326 0.949745
0.252167 0.160624 0.95426
0.360877 0.0470847 0.931424
0.478649 -0.0874329 0.873642
0.581053 -0.238759 0.778056
0.649597 -0.395666 0.649208
0.674694 -0.544756 0.498025
0.655563 -0.675204 0.338138
0.597497 -0.780828 0.182497
0.508725 -0.859921 0.0416507
0.398229 -0.914079 -0.0766351
0.274642 -0.946896 -0.167215
0.145812 -0.962832 -0.227362
0.0185835 -0.966333 -0.256622
-0.101412 -0.96118 -0.256611
-0.209961 -0.950111 -0.230665
-0.304414 -0.934731 -0.183333
-0.383686 -0.915661 -0.119793
-0.448097 -0.892837 -0.0452918
-0.499058 -0.86585 0.0352925
-0.538699 -0.834233 0.117724
-0.569496 -0.79766 0.198529
-0.593964 -0.756036 0.274985
-0.614447 -0.709506 0.345046
-0.632979 -0.658419 0.407213
-0.651217 -0.603266 0.46042
-0.670402 -0.544625 0.50393
-0.691333 -0.483121 0.537264
-0.714364 -0.419395 0.560171
-0.739411 -0.354082 0.572623
-0.765988 -0.287795 0.574837
-0.793276 -0.221104 0.567298
-0.820226 -0.154538 0.55077
-0.845683 -0.0885989 0.52628
-0.86852 -0.0237998 0.495082
-0.887774 0.0392874 0.4586
-0.902762 0.100003 0.418354
-0.91317 0.157618 0.375868
-0.919083 0.211411 0.332555
-0.920942 0.260794 0.289572
-0.919438 0.305455 0.247652
-0.915327 0.345486 0.206922
-0.909225 0.381451 0.166747
-0.90137 0.414425 0.125635
-0.891339 0.445999 0.0812353
-0.877647 0.478338 0.030462
-0.857106 0.514256 -0.0301803
-0.823817 0.557239 -0.103969
-0.767826 0.610902 -0.192981
-0.675604 0.675604 -0.295157
0.160624 0.252167 0.95426
0.265002 0.156404 0.951479
0.394163 0.0344525 0.918394
0.521577 -0.108686 0.846254
0.623343 -0.265114 0.735634
0.68387 -0.421836 0.595295
0.69794 -0.566135 0.438601
0.668505 -0.689313 0.279193
0.602892 -0.787416 0.128442
0.509788 -0.860285 -0.00511181
0.397688 -0.910238 -0.115373
0.274399 -0.940954 -0.19827
0.146967 -0.956611 -0.251587
0.0216214 -0.961208 -0.274975
-0.0963947 -0.958042 -0.269932
-0.203078 -0.949395 -0.239601
-0.295884 -0.93647 -0.188353
-0.373806 -0.919548 -0.121243
-0.437249 -0.89829 -0.0434575
-0.487737 -0.872067 0.0401402
-0.527525 -0.84025 0.125289
-0.559209 -0.802392 0.208452
-0.585389 -0.758327 0.28681
-0.608436 -0.708174 0.358182
-0.630336 -0.652312 0.420912
-0.652592 -0.591322 0.473774
-0.676179 -0.525949 0.515907
-0.701517 -0.457052 0.546788
-0.728487 -0.385567 0.566255
-0.756495 -0.31245 0.574535
-0.784586 -0.238615 0.572265
-0.811598 -0.164876 0.560469
-0.836323 -0.0919215 0.540477
-0.857666 -0.0203421 0.513804
-0.874771 0.0492938 0.482023
-0.887103 0.116355 0.446665
-0.894517 0.180106 0.409147
-0.897266 0.239743 0.370725
-0.895969 0.29451 0.332419
-0.891503 0.343865 0.294921
-0.884838 0.387642 0.258449
-0.876828 0.426167 0.222608
-0.867994 0.460317 0.186263
-0.858276 0.491535 0.147496
-0.846721 0.521844 0.103646
-0.831006 0.55388 0.0514394
-0.806644 0.5909 -0.0127546
-0.765577 0.636662 -0.0924794
-0.694273 0.694273 -0.189654
-0.575768 0.759188 -0.303521
0.0870983 0.337398 0.937324
0.156404 0.265002 0.951479
0.288476 0.164731 0.94321
0.434986 0.0363346 0.899704
0.568755 -0.113513 0.814637
0.667574 -0.273569 0.692463
0.719745 -0.429794 0.545202
0.724257 -0.570559 0.387188
0.686899 -0.689056 0.231023
0.616097 -0.782939 0.0862069
0.520404 -0.852961 -0.0404501
0.407622 -0.901722 -0.144021
0.284761 -0.932778 -0.220991
0.158221 -0.94999 -0.26923
0.0338288 -0.956973 -0.2882
-0.0833464 -0.956633 -0.279116
-0.189322 -0.950888 -0.244885
-0.281524 -0.940606 -0.18975
-0.358944 -0.925773 -0.118755
-0.422065 -0.905804 -0.0371518
-0.472565 -0.879872 0.0500816
-0.512896 -0.847196 0.138554
-0.545845 -0.807227 0.224585
-0.574157 -0.759737 0.305194
-0.600253 -0.704842 0.378012
-0.626039 -0.642988 0.441183
-0.652787 -0.574917 0.493295
-0.681078 -0.501644 0.533372
-0.710808 -0.424409 0.560918
-0.741268 -0.344595 0.575999
-0.771317 -0.263607 0.579294
-0.799598 -0.182723 0.572062
-0.824774 -0.102987 0.556004
-0.84572 -0.0251747 0.533032
-0.861642 0.0501226 0.505035
-0.872144 0.122359 0.473702
-0.877246 0.190912 0.440445
-0.877383 0.255042 0.406389
-0.873355 0.313973 0.372388
-0.866227 0.367055 0.339002
-0.857174 0.413951 0.306427
-0.847278 0.454793 0.274377
-0.837307 0.490279 0.241956
-0.827492 0.521695 0.207586
-0.817263 0.55092 0.169019
-0.804898 0.58044 0.123404
-0.78693 0.61335 0.0673955
-0.757071 0.653328 -0.00259031
-0.704285 0.704285 -0.0892559
-0.610902 0.767826 -0.192981
0.0470847 0.360877 0.931424
0.164731 0.288476 0.94321
0.321094 0.184449 0.928912
0.481478 0.0504259 0.875006
0.618518 -0.104779 0.778753
0.712769 -0.267385 0.648433
0.756888 -0.423099 0.498104
0.753517 -0.561602 0.341782
0.71032 -0.677639 0.190395
0.636055 -0.769915 0.0516209
0.538769 -0.839619 -0.0690563
0.425492 -0.889349 -0.167376
0.302552 -0.92244 -0.239933
0.175909 -0.942445 -0.284347
0.0512266 -0.952661 -0.299687
-0.0663712 -0.955681 -0.286824
-0.172743 -0.953111 -0.248474
-0.265178 -0.945517 -0.188886
-0.34265 -0.932612 -0.11325
-0.405767 -0.913577 -0.0270391
-0.45645 -0.887405 0.0645411
-0.497452 -0.853187 0.15689
-0.531839 -0.810287 0.246135
-0.562546 -0.758441 0.329102
-0.592033 -0.697794 0.403212
-0.622052 -0.628915 0.466388
-0.653505 -0.552812 0.517039
-0.686415 -0.470921 0.554138
-0.720003 -0.38503 0.577363
-0.752913 -0.297112 0.587236
-0.783524 -0.209069 0.585132
-0.810281 -0.122481 0.5731
-0.831944 -0.0384748 0.553525
-0.847729 0.0422405 0.528746
-0.857339 0.119185 0.500765
-0.860946 0.191893 0.471115
-0.859152 0.259783 0.440874
-0.852935 0.322161 0.410748
-0.843547 0.378368 0.381138
-0.832365 0.42797 0.352152
-0.820692 0.470956 0.323518
-0.809539 0.507865 0.294482
-0.799395 0.539838 0.263709
-0.790007 0.568614 0.229273
-0.780089 0.596527 0.188723
-0.7669 0.6265 0.13915
-0.745475 0.66203 0.0773538
-0.707107 0.707107 0.000564761
-0.636662 0.765577 -0.0924794
-0.509251 0.834232 -0.21147
-0.0344846 0.440312 0.897182
0.0344525 0.394163 0.918394
0.184449 0.321094 0.928912
0.361221 0.213566 0.907694
0.531624 0.0744312 0.843703
0.668962 -0.0850239 0.738417
0.757526 -0.249371 0.603297
0.79429 -0.404716 0.453109
0.78472 -0.542092 0.300584
0.737458 -0.657429 0.154731
0.661024 -0.750053 0.0216412
0.562723 -0.821273 -0.0940967
0.448823 -0.873523 -0.188456
0.32511 -0.909865 -0.257778
0.197316 -0.933573 -0.299179
0.0711809 -0.947671 -0.311212
-0.0479041 -0.954478 -0.294409
-0.155493 -0.955308 -0.251414
-0.248687 -0.950431 -0.186645
-0.326475 -0.939287 -0.105608
-0.389693 -0.920837 -0.0141245
-0.44063 -0.893909 0.0822888
-0.482449 -0.857484 0.178786
-0.518568 -0.810857 0.271291
-0.552114 -0.753747 0.35642
-0.585516 -0.686366 0.431362
-0.620215 -0.609501 0.493804
-0.656535 -0.524583 0.54201
-0.693729 -0.433678 0.575033
-0.730234 -0.339317 0.592977
-0.764094 -0.244143 0.597122
-0.79343 -0.150472 0.589769
-0.8168 -0.0599832 0.573794
-0.833368 0.0263429 0.55209
-0.842903 0.108017 0.527112
-0.845712 0.184727 0.500646
-0.842563 0.256092 0.473819
-0.834603 0.321577 0.447243
-0.823268 0.380587 0.421169
-0.810138 0.432663 0.395576
-0.796737 0.477697 0.370156
-0.784315 0.516102 0.344222
-0.773619 0.548886 0.316602
-0.764674 0.577668 0.285611
-0.756542 0.60464 0.249107
-0.747012 0.632548 0.204588
-0.732065 0.664673 0.149302
-0.7048 0.7048 0.0807028
-0.653328 0.757071 -0.00259031
-0.557239 0.823817 -0.103969
-0.0874329 0.478649 0.873642
0.0363346 0.434986 0.899704
0.213566 0.361221 0.907694
0.406691 0.250082 0.87867
0.583047 0.106354 0.805447
0.718052 -0.0563253 0.693706
0.800373 -0.221735 0.556988
0.830819 -0.376843 0.409547
0.816745 -0.513961 0.262244
0.76701 -0.629893 0.122189
0.689484 -0.724278 -0.00579067
0.590596 -0.798349 -0.11762
0.475886 -0.854279 -0.209143
0.350739 -0.894831 -0.276152
0.220876 -0.923011 -0.315064
0.0923343 -0.941592 -0.323851
-0.0290327 -0.952623 -0.302765
-0.138371 -0.957115 -0.254527
-0.232594 -0.955029 -0.183902
-0.310798 -0.945528 -0.0968608
-0.374179 -0.927357 0.000329482
-0.425534 -0.899197 0.10181
-0.46854 -0.859924 0.202487
-0.506996 -0.808767 0.298079
-0.544168 -0.745438 0.384972
-0.582283 -0.670281 0.460076
-0.622217 -0.584454 0.520826
-0.663424 -0.490065 0.565425
-0.704187 -0.390086 0.593257
-0.742157 -0.287953 0.605216
-0.775015 -0.186921 0.603666
-0.801004 -0.0894681 0.591936
-0.819165 0.00294303 0.573551
-0.82931 0.0896904 0.551543
-0.831883 0.170577 0.528085
-0.827817 0.245438 0.504459
-0.818438 0.313947 0.481245
-0.805365 0.375636 0.458568
-0.790378 0.43008 0.436273
-0.775224 0.477126 0.413978
-0.761395 0.517091 0.391017
-0.749891 0.550876 0.366332
-0.741001 0.579996 0.338411
-0.734093 0.606526 0.305341
-0.727361 0.633056 0.264928
-0.717462 0.662646 0.214822
-0.698805 0.698805 0.152783
-0.66203 0.745475 0.0773538
-0.5909 0.806644 -0.0127546
-0.456419 0.880451 -0.128404
-0.178284 0.53977 0.822717
-0.108686 0.521577 0.846254
0.0504259 0.481478 0.875006
0.250082 0.406691 0.87867
0.455022 0.29175 0.84133
0.633339 0.144084 0.760343
0.763931 -0.0207556 0.644963
0.84 -0.186517 0.509521
0.865408 -0.34133 0.366828
0.848504 -0.478678 0.225628
0.797769 -0.596009 0.0913133
0.720133 -0.693087 -0.0322425
0.621061 -0.770948 -0.141148
0.5054 -0.831441 -0.230818
0.378279 -0.877009 -0.296243
0.245606 -0.910382 -0.332991
0.113943 -0.934068 -0.338429
-0.0102368 -0.949819 -0.312632
-0.12161 -0.958308 -0.258568
-0.216958 -0.959156 -0.181521
-0.295614 -0.951241 -0.088049
-0.359302 -0.933099 0.0150899
-0.411468 -0.903263 0.121697
-0.456375 -0.86049 0.226449
-0.498184 -0.803921 0.324845
-0.54014 -0.733279 0.412978
-0.583978 -0.649161 0.487401
-0.62962 -0.553372 0.545305
-0.675324 -0.449069 0.585043
-0.71831 -0.340427 0.606746
-0.755677 -0.231814 0.612548
-0.785205 -0.126809 0.606112
-0.805731 -0.0276381 0.591637
-0.817088 0.0647649 0.572864
-0.81987 0.150242 0.552485
-0.815206 0.228847 0.532042
-0.804613 0.300493 0.512154
-0.789905 0.364893 0.492852
-0.773063 0.421707 0.473852
-0.75606 0.470784 0.454683
-0.740627 0.512381 0.434669
-0.728021 0.547317 0.412831
-0.718792 0.57702 0.387796
-0.712582 0.603482 0.357822
-0.707918 0.629169 0.320934
-0.701961 0.656946 0.275087
-0.690045 0.690045 0.218345
-0.664673 0.732065 0.149302
-0.61335 0.78693 0.0673955
-0.514256 0.857106 -0.0301803
-0.238759 0.581053 0.778056
-0.113513 0.568755 0.814637
0.0744312 0.531624 0.843703
0.29175 0.455022 0.84133
0.503689 0.336205 0.795778
0.680365 0.185484 0.709012
0.805127 0.0196851 0.592776
0.875389 -0.145548 0.460988
0.89717 -0.299695 0.324452
0.879053 -0.437315 0.189792
0.828706 -0.556359 0.0609184
0.751908 -0.656625 -0.0589709
0.653084 -0.73889 -0.1659
0.536421 -0.804635 -0.254589
0.40692 -0.855948 -0.319013
0.270885 -0.895249 -0.353768
0.135605 -0.924735 -0.355636
0.00831069 -0.945797 -0.324652
-0.105198 -0.95871 -0.264213
-0.201672 -0.962719 -0.18028
-0.280864 -0.956401 -0.0800782
-0.345201 -0.938076 0.0291365
-0.398911 -0.906107 0.140856
-0.44688 -0.859087 0.249536
-0.493512 -0.796033 0.350396
-0.54173 -0.716737 0.439109
-0.5923 -0.6223 0.511785
-0.6437 -0.515629 0.565488
-0.69274 -0.401406 0.599153
-0.735766 -0.285202 0.614254
-0.769889 -0.17204 0.614551
-0.79361 -0.0652867 0.604914
-0.806765 0.0335468 0.58992
-0.810137 0.124225 0.572928
-0.805096 0.206999 0.555853
-0.793392 0.282055 0.539421
-0.777051 0.34933 0.523603
-0.75827 0.408616 0.507996
-0.739246 0.459802 0.492034
-0.721958 0.503126 0.475017
-0.707918 0.539347 0.456024
-0.697933 0.569828 0.433804
-0.691906 0.596501 0.406759
-0.688655 0.62175 0.37307
-0.685725 0.648293 0.330904
-0.679114 0.679114 0.278582
-0.662646 0.717462 0.214822
-0.6265 0.7669 0.13915
-0.55388 0.831006 0.0514394
-0.414059 0.908429 -0.0575412
-0.335203 0.615737 0.713097
-0.265114 0.623343 0.735634
-0.104779 0.618518 0.778753
0.106354 0.583047 0.805447
0.336205 0.503689 0.795778
0.550413 0.381192 0.742791
0.72249 0.228577 0.652504
0.840645 0.0632118 0.537885
0.905851 -0.10037 0.411534
0.925426 -0.253102 0.282002
0.907613 -0.390563 0.153944
0.858958 -0.511165 0.0300253
0.783932 -0.61472 -0.0870107
0.685834 -0.701734 -0.192877
0.568206 -0.773288 -0.281366
0.436051 -0.831067 -0.345234
0.296272 -0.87711 -0.378023
0.157082 -0.913213 -0.375988
0.0265629 -0.940307 -0.339288
-0.0890537 -0.958184 -0.271944
-0.186652 -0.965661 -0.18072
-0.266611 -0.960994 -0.0735496
-0.332258 -0.94226 0.0418403
-0.388706 -0.907597 0.158664
-0.441423 -0.855359 0.271121
-0.494786 -0.784415 0.374005
-0.550866 -0.694795 0.462392
-0.608789 -0.588582 0.531927
-0.665097 -0.470462 0.579923
-0.715211 -0.3471 0.606626
-0.755261 -0.225293 0.615487
-0.783203 -0.110052 0.61195
-0.798828 -0.00385455 0.601547
-0.803169 0.0927998 0.588479
-0.797919 0.180321 0.57516
-0.785126 0.259192 0.562492
-0.767068 0.329618 0.550417
-0.746176 0.391565 0.538422
-0.724886 0.445006 0.525841
-0.705431 0.490185 0.511943
-0.689579 0.52783 0.495859
-0.678397 0.559259 0.476453
-0.672038 0.586362 0.452266
-0.669579 0.61148 0.421611
-0.668878 0.637236 0.382796
-0.666417 0.666417 0.334331
-0.656946 0.701961 0.275087
-0.632548 0.747012 0.204588
-0.58044 0.804898 0.123404
-0.478338 0.877647 0.030462
-0.395666 0.649597 0.649208
-0.273569 0.667574 0.692463
-0.0850239 0.668962 0.738417
0.144084 0.633339 0.760343
0.381192 0.550413 0.742791
0.593398 0.424795 0.683687
0.758671 0.271718 0.592104
0.869959 0.108377 0.481068
0.930988 -0.0521627 0.361303
0.949673 -0.202342 0.239121
0.933519 -0.338755 0.117421
0.887755 -0.460311 -0.00217584
0.815406 -0.566901 -0.117205
0.71855 -0.658796 -0.222876
0.600081 -0.736657 -0.311831
0.465125 -0.801691 -0.375434
0.321389 -0.85544 -0.406117
0.178184 -0.899155 -0.399713
0.0444861 -0.933159 -0.3567
-0.0731495 -0.956651 -0.2819
-0.171958 -0.96796 -0.182985
-0.25319 -0.964982 -0.0685975
-0.321258 -0.945502 0.0531053
-0.382214 -0.907341 0.175057
-0.441919 -0.848518 0.291075
-0.504204 -0.767802 0.395296
-0.569464 -0.665863 0.482013
-0.634377 -0.546594 0.546627
-0.693343 -0.417279 0.587497
-0.741087 -0.286678 0.60713
-0.774642 -0.16206 0.611283
-0.793637 -0.0474438 0.606539
-0.799423 0.0561029 0.598143
-0.794144 0.149072 0.589163
-0.780241 0.232268 0.580754
-0.760314 0.306213 0.57285
-0.737063 0.371093 0.564826
-0.713189 0.426993 0.555913
-0.691187 0.474197 0.545342
-0.673096 0.513425 0.532294
-0.660241 0.545967 0.515754
-0.653022 0.573688 0.494413
-0.650752 0.598914 0.466716
-0.651552 0.624221 0.431078
-0.652265 0.652265 0.386136
-0.648293 0.685725 0.330904
-0.633056 0.727361 0.264928
-0.596527 0.780089 0.188723
-0.521844 0.846721 0.103646
-0.378055 0.92578 0.00228471
-0.49146 0.654131 0.574961
-0.421836 0.68387 0.595295
-0.267385 0.712769 0.648433
-0.0563253 0.718052 0.693706
0.185484 0.680365 0.709012
0.424795 0.593398 0.683687
0.631452 0.465595 0.620072
0.788432 0.313701 0.529119
0.892914 0.154135 0.42302
0.950604 -0.00172302 0.3104
0.969496 -0.147846 0.195496
0.956133 -0.281889 0.0796733
0.91431 -0.403384 -0.0363281
0.845484 -0.512447 -0.150185
0.750407 -0.609206 -0.256432
0.631304 -0.693895 -0.34636
0.493541 -0.767134 -0.409784
0.34582 -0.829787 -0.438021
0.198681 -0.882337 -0.426624
0.0619737 -0.924301 -0.376598
-0.0576095 -0.954148 -0.293738
-0.157925 -0.969643 -0.186687
-0.241356 -0.968272 -0.0647765
-0.313552 -0.947451 0.0634229
-0.381434 -0.904556 0.190488
-0.450824 -0.837192 0.309624
-0.524122 -0.744249 0.413993
-0.598905 -0.627874 0.497079
-0.668752 -0.494988 0.55476
-0.726492 -0.356106 0.587706
-0.767609 -0.221398 0.601464
-0.791278 -0.0972443 0.603674
-0.799222 0.0142272 0.600868
-0.794199 0.113441 0.596975
-0.779194 0.201548 0.593494
-0.757219 0.279445 0.590364
-0.731308 0.347585 0.586833
-0.70446 0.406202 0.58201
-0.679465 0.455641 0.575082
-0.658646 0.496637 0.565276
-0.6436 0.530468 0.551709
-0.634969 0.558987 0.533243
-0.632288 0.584519 0.508477
-0.633902 0.609638 0.475931
-0.636929 0.636929 0.43433
-0.637236 0.668878 0.382796
-0.629169 0.707918 0.320934
-0.60464 0.756542 0.249107
-0.55092 0.817263 0.169019
-0.445999 0.891339 0.0812353
-0.544756 0.674694 0.498025
-0.429794 0.719745 0.545202
-0.249371 0.757526 0.603297
-0.0207556 0.763931 0.644963
0.228577 0.72249 0.652504
0.465595 0.631452 0.620072
0.663971 0.502708 0.553559
0.81173 0.353769 0.464695
0.909594 0.199838 0.364285
0.96459 0.0505088 0.258873
0.984475 -0.0897326 0.150856
0.974735 -0.219702 0.040276
0.937685 -0.33976 -0.0728732
0.873128 -0.450488 -0.186301
0.780378 -0.552031 -0.293721
0.660958 -0.644198 -0.384894
0.520566 -0.726864 -0.447973
0.369051 -0.799931 -0.473193
0.218246 -0.862803 -0.456003
0.0787616 -0.913932 -0.398153
-0.0428305 -0.95089 -0.306552
-0.145315 -0.970802 -0.190858
-0.232449 -0.970689 -0.0610811
-0.311177 -0.947485 0.0737696
-0.389016 -0.897963 0.205738
-0.470934 -0.819305 0.327048
-0.556516 -0.711154 0.429592
-0.639259 -0.578637 0.506485
-0.709792 -0.4331 0.555536
-0.761128 -0.288017 0.581146
-0.791382 -0.153216 0.591811
-0.8026 -0.0326883 0.595622
-0.798357 0.0736443 0.597664
-0.782382 0.167289 0.59991
-0.758229 0.249599 0.602319
-0.729347 0.321358 0.603972
-0.699092 0.382981 0.603818
-0.670594 0.434896 0.600974
-0.646496 0.477867 0.594715
-0.628686 0.513177 0.584298
-0.618055 0.542677 0.568779
-0.614353 0.568699 0.546948
-0.616113 0.593841 0.517454
-0.620671 0.620671 0.479098
-0.624221 0.651552 0.431078
-0.62175 0.688655 0.37307
-0.606526 0.734093 0.305341
-0.568614 0.790007 0.229273
-0.491535 0.858276 0.147496
-0.345192 0.936972 0.0540982
-0.633765 0.64934 0.420356
-0.566135 0.69794 0.438601
-0.423099 0.756888 0.498104
-0.221735 0.800373 0.556988
0.0196851 0.805127 0.592776
0.271718 0.758671 0.592104
0.502708 0.663971 0.553559
0.690823 0.535728 0.48555
0.828797 0.39156 0.39972
0.920174 0.245177 0.305234
0.972817 0.104381 0.206718
0.994082 -0.0279002 0.104991
0.988412 -0.151791 -0.00103141
0.956674 -0.268765 -0.111984
0.896986 -0.380203 -0.225526
0.807134 -0.486503 -0.33444
0.687878 -0.587059 -0.426831
0.545294 -0.68075 -0.489116
0.390438 -0.766112 -0.51052
0.236398 -0.841043 -0.486583
0.09434 -0.902606 -0.420002
-0.0296019 -0.947316 -0.318931
-0.135436 -0.971592 -0.194079
-0.228473 -0.97193 -0.0561375
-0.316865 -0.944623 0.0853483
-0.408114 -0.885637 0.221563
-0.504913 -0.791983 0.343259
-0.602124 -0.665518 0.441059
-0.688473 -0.516584 0.509063
-0.753425 -0.361652 0.549144
-0.792947 -0.215227 0.570012
-0.80913 -0.0844116 0.581535
-0.806578 0.0299947 0.590366
-0.790016 0.129823 0.599184
-0.763707 0.216998 0.608
-0.731613 0.292723 0.615675
-0.697525 0.357642 0.620928
-0.664977 0.412283 0.622759
-0.636992 0.457449 0.62047
-0.615784 0.494439 0.613466
-0.602519 0.525112 0.601023
-0.597158 0.551809 0.582159
-0.598402 0.577158 0.555701
-0.603754 0.603754 0.520541
-0.609638 0.633902 0.475931
-0.61148 0.669579 0.421611
-0.603482 0.712582 0.357822
-0.577668 0.764674 0.285611
-0.521695 0.827492 0.207586
-0.414425 0.90137 0.125635
-0.675204 0.655563 0.338138
-0.570559 0.724257 0.387188