# vtk DataFile Version 2.0
tmp/0.000.00-10.000.000.001.0017.vtk
ASCII
DATASET UNSTRUCTURED_GRID
POINTS 5000 float
0.25 0.25 0
1.25 0.25 0
2.25 0.25 0
3.25 0.25 0
4.25 0.25 0
5.25 0.25 0
6.25 0.25 0
7.25 0.25 0
8.25 0.25 0
9.25 0.25 0
10.25 0.25 0
11.25 0.25 0
12.25 0.25 0
13.25 0.25 0
14.25 0.25 0
15.25 0.25 0
16.25 0.25 0
17.25 0.25 0
18.25 0.25 0
19.25 0.25 0
20.25 0.25 0
21.25 0.25 0
22.25 0.25 0
23.25 0.25 0
24.25 0.25 0
25.25 0.25 0
26.25 0.25 0
27.25 0.25 0
28.25 0.25 0
29.25 0.25 0
30.25 0.25 0
31.25 0.25 0
32.25 0.25 0
33.25 0.25 0
34.25 0.25 0
35.25 0.25 0
36.25 0.25 0
37.25 0.25 0
38.25 0.25 0
39.25 0.25 0
40.25 0.25 0
41.25 0.25 0
42.25 0.25 0
43.25 0.25 0
44.25 0.25 0
45.25 0.25 0
46.25 0.25 0
47.25 0.25 0
48.25 0.25 0
49.25 0.25 0
0.75 0.75 0
1.75 0.75 0
2.75 0.75 0
3.75 0.75 0
4.75 0.75 0
5.75 0.75 0
6.75 0.75 0
7.75 0.75 0
8.75 0.75 0
9.75 0.75 0
10.75 0.75 0
11.75 0.75 0
12.75 0.75 0
13.75 0.75 0
14.75 0.75 0
15.75 0.75 0
16.75 0.75 0
17.75 0.75 0
18.75 0.75 0
19.75 0.75 0
20.75 0.75 0
21.75 0.75 0
22.75 0.75 0
23.75 0.75 0
24.75 0.75 0
25.75 0.75 0
26.75 0.75 0
27.75 0.75 0
28.75 0.75 0
29.75 0.75 0
30.75 0.75 0
31.75 0.75 0
32.75 0.75 0
33.75 0.75 0
34.75 0.75 0
35.75 0.75 0
36.75 0.75 0
37.75 0.75 0
38.75 0.75 0
39.75 0.75 0
40.75 0.75 0
41.75 0.75 0
42.75 0.75 0
43.75 0.75 0
44.75 0.75 0
45.75 0.75 0
46.75 0.75 0
47.75 0.75 0
48.75 0.75 0
49.75 0.75 0
0.25 1.25 0
1.25 1.25 0
2.25 1.25 0
3.25 1.25 0
4.25 1.25 0
5.25 1.25 0
6.25 1.25 0
7.25 1.25 0
8.25 1.25 0
9.25 1.25 0
10.25 1.25 0
11.25 1.25 0
12.25 1.25 0
13.25 1.25 0
14.25 1.25 0
15.25 1.25 0
16.25 1.25 0
17.25 1.25 0
18.25 1.25 0
19.25 1.25 0
20.25 1.25 0
21.25 1.25 0
22.25 1.25 0
23.25 1.25 0
24.25 1.25 0
25.25 1.25 0
26.25 1.25 0
27.25 1.25 0
28.25 1.25 0
29.25 1.25 0
30.25 1.25 0
31.25 1.25 0
32.25 1.25 0
33.25 1.25 0
34.25 1.25 0
35.25 1.25 0
36.25 1.25 0
37.25 1.25 0
38.25 1.25 0
39.25 1.25 0
40.25 1.25 0
41.25 1.25 0
42.25 1.25 0
43.25 1.25 0
44.25 1.25 0
45.25 1.25 0
46.25 1.25 0
47.25 1.25 0
48.25 1.25 0
49.25 1.25 0
0.75 1.75 0
1.75 1.75 0
2.75 1.75 0
3.75 1.75 0
4.75 1.75 0
5.75 1.75 0
6.75 1.75 0
7.75 1.75 0
8.75 1.75 0
9.75 1.75 0
10.75 1.75 0
11.75 1.75 0
12.75 1.75 0
13.75 1.75 0
14.75 1.75 0
15.75 1.75 0
16.75 1.75 0
17.75 1.75 0
18.75 1.75 0
19.75 1.75 0
20.75 1.75 0
21.75 1.75 0
22.75 1.75 0
23.75 1.75 0
24.75 1.75 0
25.75 1.75 0
26.75 1.75 0
27.75 1.75 0
28.75 1.75 0
29.75 1.75 0
30.75 1.75 0
31.75 1.75 0
32.75 1.75 0
33.75 1.75 0
34.75 1.75 0
35.75 1.75 0
36.75 1.75 0
37.75 1.75 0
38.75 1.75 0
39.75 1.75 0
40.75 1.75 0
41.75 1.75 0
42.75 1.75 0
43.75 1.75 0
44.75 1.75 0
45.75 1.75 0
46.75 1.75 0
47.75 1.75 0
48.75 1.75 0
49.75 1.75 0
0.25 2.25 0
1.25 2.25 0
2.25 2.25 0
3.25 2.25 0
4.25 2.25 0
5.25 2.25 0
6.25 2.25 0
7.25 2.25 0
8.25 2.25 0
9.25 2.25 0
10.25 2.25 0
11.25 2.25 0
12.25 2.25 0
13.25 2.25 0
14.25 2.25 0
15.25 2.25 0
16.25 2.25 0
17.25 2.25 0
18.25 2.25 0
19.25 2.25 0
20.25 2.25 0
21.25 2.25 0
22.25 2.25 0
23.25 2.25 0
24.25 2.25 0
25.25 2.25 0
26.25 2.25 0
27.25 2.25 0
28.25 2.25 0
29.25 2.25 0
30.25 2.25 0
31.25 2.25 0
32.25 2.25 0
33.25 2.25 0
34.25 2.25 0
35.25 2.25 0
36.25 2.25 0
37.25 2.25 0
38.25 2.25 0
39.25 2.25 0
40.25 2.25 0
41.25 2.25 0
42.25 2.25 0
43.25 2.25 0
44.25 2.25 0
45.25 2.25 0
46.25 2.25 0
47.25 2.25 0
48.25 2.25 0
49.25 2.25 0
0.75 2.75 0
1.75 2.75 0
2.75 2.75 0
3.75 2.75 0
4.75 2.75 0
5.75 2.75 0
6.75 2.75 0
7.75 2.75 0
8.75 2.75 0
9.75 2.75 0
10.75 2.75 0
11.75 2.75 0
12.75 2.75 0
13.75 2.75 0
14.75 2.75 0
15.75 2.75 0
16.75 2.75 0
17.75 2.75 0
18.75 2.75 0
19.75 2.75 0
20.75 2.75 0
21.75 2.75 0
22.75 2.75 0
23.75 2.75 0
24.75 2.75 0
25.75 2.75 0
26.75 2.75 0
27.75 2.75 0
28.75 2.75 0
29.75 2.75 0
30.75 2.75 0
31.75 2.75 0
32.75 2.75 0
33.75 2.75 0
34.75 2.75 0
35.75 2.75 0
36.75 2.75 0
37.75 2.75 0
38.75 2.75 0
39.75 2.75 0
40.75 2.75 0
41.75 2.75 0
42.75 2.75 0
43.75 2.75 0
44.75 2.75 0
45.75 2.75 0
46.75 2.75 0
47.75 2.75 0
48.75 2.75 0
49.75 2.75 0
0.25 3.25 0
1.25 3.25 0
2.25 3.25 0
3.25 3.25 0
4.25 3.25 0
5.25 3.25 0
6.25 3.25 0
7.25 3.25 0
8.25 3.25 0
9.25 3.25 0
10.25 3.25 0
11.25 3.25 0
12.25 3.25 0
13.25 3.25 0
14.25 3.25 0
15.25 3.25 0
16.25 3.25 0
17.25 3.25 0
18.25 3.25 0
19.25 3.25 0
20.25 3.25 0
21.25 3.25 0
22.25 3.25 0
23.25 3.25 0
24.25 3.25 0
25.25 3.25 0
26.25 3.25 0
27.25 3.25 0
28.25 3.25 0
29.25 3.25 0
30.25 3.25 0
31.25 3.25 0
32.25 3.25 0
33.25 3.25 0
34.25 3.25 0
35.25 3.25 0
36.25 3.25 0
37.25 3.25 0
38.25 3.25 0
39.25 3.25 0
40.25 3.25 0
41.25 3.25 0
42.25 3.25 0
43.25 3.25 0
44.25 3.25 0
45.25 3.25 0
46.25 3.25 0
47.25 3.25 0
48.25 3.25 0
49.25 3.25 0
0.75 3.75 0
1.75 3.75 0
2.75 3.75 0
3.75 3.75 0
4.75 3.75 0
5.75 3.75 0
6.75 3.75 0
7.75 3.75 0
8.75 3.75 0
9.75 3.75 0
10.75 3.75 0
11.75 3.75 0
12.75 3.75 0
13.75 3.75 0
14.75 3.75 0
15.75 3.75 0
16.75 3.75 0
17.75 3.75 0
18.75 3.75 0
19.75 3.75 0
20.75 3.75 0
21.75 3.75 0
22.75 3.75 0
23.75 3.75 0
24.75 3.75 0
25.75 3.75 0
26.75 3.75 0
27.75 3.75 0
28.75 3.75 0
29.75 3.75 0
30.75 3.75 0
31.75 3.75 0
32.75 3.75 0
33.75 3.75 0
34.75 3.75 0
35.75 3.75 0
36.75 3.75 0
37.75 3.75 0
38.75 3.75 0
39.75 3.75 0
40.75 3.75 0
41.75 3.75 0
42.75 3.75 0
43.75 3.75 0
44.75 3.75 0
45.75 3.75 0
46.75 3.75 0
47.75 3.75 0
48.75 3.75 0
49.75 3.75 0
0.25 4.25 0
1.25 4.25 0
2.25 4.25 0
3.25 4.25 0
4.25 4.25 0
5.25 4.25 0
6.25 4.25 0
7.25 4.25 0
8.25 4.25 0
9.25 4.25 0
10.25 4.25 0
11.25 4.25 0
12.25 4.25 0
13.25 4.25 0
14.25 4.25 0
15.25 4.25 0
16.25 4.25 0
17.25 4.25 0
18.25 4.25 0
19.25 4.25 0
20.25 4.25 0
21.25 4.25 0
22.25 4.25 0
23.25 4.25 0
24.25 4.25 0
25.25 4.25 0
26.25 4.25 0
27.25 4.25 0
28.25 4.25 0
29.25 4.25 0
30.25 4.25 0
31.25 4.25 0
32.25 4.25 0
33.25 4.25 0
34.25 4.25 0
35.25 4.25 0
36.25 4.25 0
37.25 4.25 0
38.25 4.25 0
39.25 4.25 0
40.25 4.25 0
41.25 4.25 0
42.25 4.25 0
43.25 4.25 0
44.25 4.25 0
45.25 4.25 0
46.25 4.25 0
47.25 4.25 0
48.25 4.25 0
49.25 4.25 0
0.75 4.75 0
1.75 4.75 0
2.75 4.75 0
3.75 4.75 0
4.75 4.75 0
5.75 4.75 0
6.75 4.75 0
7.75 4.75 0
8.75 4.75 0
9.75 4.75 0
10.75 4.75 0
11.75 4.75 0
12.75 4.75 0
13.75 4.75 0
14.75 4.75 0
15.75 4.75 0
16.75 4.75 0
17.75 4.75 0
18.75 4.75 0
19.75 4.75 0
20.75 4.75 0
21.75 4.75 0
22.75 4.75 0
23.75 4.75 0
24.75 4.75 0
25.75 4.75 0
26.75 4.75 0
27.75 4.75 0
28.75 4.75 0
29.75 4.75 0
30.75 4.75 0
31.75 4.75 0
32.75 4.75 0
33.75 4.75 0
34.75 4.75 0
35.75 4.75 0
36.75 4.75 0
37.75 4.75 0
38.75 4.75 0
39.75 4.75 0
40.75 4.75 0
41.75 4.75 0
42.75 4.75 0
43.75 4.75 0
44.75 4.75 0
45.75 4.75 0
46.75 4.75 0
47.75 4.75 0
48.75 4.75 0
49.75 4.75 0
0.25 5.25 0
1.25 5.25 0
2.25 5.25 0
3.25 5.25 0
4.25 5.25 0
5.25 5.25 0
6.25 5.25 0
7.25 5.25 0
8.25 5.25 0
9.25 5.25 0
10.25 5.25 0
11.25 5.25 0
12.25 5.25 0
13.25 5.25 0
14.25 5.25 0
15.25 5.25 0
16.25 5.25 0
17.25 5.25 0
18.25 5.25 0
19.25 5.25 0
20.25 5.25 0
21.25 5.25 0
22.25 5.25 0
23.25 5.25 0
24.25 5.25 0
25.25 5.25 0
26.25 5.25 0
27.25 5.25 0
28.25 5.25 0
29.25 5.25 0
30.25 5.25 0
31.25 5.25 0
32.25 5.25 0
33.25 5.25 0
34.25 5.25 0
35.25 5.25 0
36.25 5.25 0
37.25 5.25 0
38.25 5.25 0
39.25 5.25 0
40.25 5.25 0
41.25 5.25 0
42.25 5.25 0
43.25 5.25 0
44.25 5.25 0
45.25 5.25 0
46.25 5.25 0
47.25 5.25 0
48.25 5.25 0
49.25 5.25 0
0.75 5.75 0
1.75 5.75 0
2.75 5.75 0
3.75 5.75 0
4.75 5.75 0
5.75 5.75 0
6.75 5.75 0
7.75 5.75 0
8.75 5.75 0
9.75 5.75 0
10.75 5.75 0
11.75 5.75 0
12.75 5.75 0
13.75 5.75 0
14.75 5.75 0
15.75 5.75 0
16.75 5.75 0
17.75 5.75 0
18.75 5.75 0
19.75 5.75 0
20.75 5.75 0
21.75 5.75 0
22.75 5.75 0
23.75 5.75 0
24.75 5.75 0
25.75 5.75 0
26.75 5.75 0
27.75 5.75 0
28.75 5.75 0
29.75 5.75 0
30.75 5.75 0
31.75 5.75 0
32.75 5.75 0
33.75 5.75 0
34.75 5.75 0
35.75 5.75 0
36.75 5.75 0
37.75 5.75 0
38.75 5.75 0
39.75 5.75 0
40.75 5.75 0
41.75 5.75 0
42.75 5.75 0
43.75 5.75 0
44.75 5.75 0
45.75 5.75 0
46.75 5.75 0
47.75 5.75 0
48.75 5.75 0
49.75 5.75 0
0.25 6.25 0
1.25 6.25 0
2.25 6.25 0
3.25 6.25 0
4.25 6.25 0
5.25 6.25 0
6.25 6.25 0
7.25 6.25 0
8.25 6.25 0
9.25 6.25 0
10.25 6.25 0
11.25 6.25 0
12.25 6.25 0
13.25 6.25 0
14.25 6.25 0
15.25 6.25 0
16.25 6.25 0
17.25 6.25 0
18.25 6.25 0
19.25 6.25 0
20.25 6.25 0
21.25 6.25 0
22.25 6.25 0
23.25 6.25 0
24.25 6.25 0
25.25 6.25 0
26.25 6.25 0
27.25 6.25 0
28.25 6.25 0
29.25 6.25 0
30.25 6.25 0
31.25 6.25 0
32.25 6.25 0
33.25 6.25 0
34.25 6.25 0
35.25 6.25 0
36.25 6.25 0
37.25 6.25 0
38.25 6.25 0
39.25 6.25 0
40.25 6.25 0
41.25 6.25 0
42.25 6.25 0
43.25 6.25 0
44.25 6.25 0
45.25 6.25 0
46.25 6.25 0
47.25 6.25 0
48.25 6.25 0
49.25 6.25 0
0.75 6.75 0
1.75 6.75 0
2.75 6.75 0
3.75 6.75 0
4.75 6.75 0
5.75 6.75 0
6.75 6.75 0
7.75 6.75 0
8.75 6.75 0
9.75 6.75 0
10.75 6.75 0
11.75 6.75 0
12.75 6.75 0
13.75 6.75 0
14.75 6.75 0
15.75 6.75 0
16.75 6.75 0
17.75 6.75 0
18.75 6.75 0
19.75 6.75 0
20.75 6.75 0
21.75 6.75 0
22.75 6.75 0
23.75 6.75 0
24.75 6.75 0
25.75 6.75 0
26.75 6.75 0
27.75 6.75 0
28.75 6.75 0
29.75 6.75 0
30.75 6.75 0
31.75 6.75 0
32.75 6.75 0
33.75 6.75 0
34.75 6.75 0
35.75 6.75 0
36.75 6.75 0
37.75 6.75 0
38.75 6.75 0
39.75 6.75 0
40.75 6.75 0
41.75 6.75 0
42.75 6.75 0
43.75 6.75 0
44.75 6.75 0
45.75 6.75 0
46.75 6.75 0
47.75 6.75 0
48.75 6.75 0
49.75 6.75 0
0.25 7.25 0
1.25 7.25 0
2.25 7.25 0
3.25 7.25 0
4.25 7.25 0
5.25 7.25 0
6.25 7.25 0
7.25 7.25 0
8.25 7.25 0
9.25 7.25 0
10.25 7.25 0
11.25 7.25 0
12.25 7.25 0
13.25 7.25 0
14.25 7.25 0
15.25 7.25 0
16.25 7.25 0
17.25 7.25 0
18.25 7.25 0
19.25 7.25 0
20.25 7.25 0
21.25 7.25 0
22.25 7.25 0
23.25 7.25 0
24.25 7.25 0
25.25 7.25 0
26.25 7.25 0
27.25 7.25 0
28.25 7.25 0
29.25 7.25 0
30.25 7.25 0
31.25 7.25 0
32.25 7.25 0
33.25 7.25 0
34.25 7.25 0
35.25 7.25 0
36.25 7.25 0
37.25 7.25 0
38.25 7.25 0
39.25 7.25 0
40.25 7.25 0
41.25 7.25 0
42.25 7.25 0
43.25 7.25 0
44.25 7.25 0
45.25 7.25 0
46.25 7.25 0
47.25 7.25 0
48.25 7.25 0
49.25 7.25 0
0.75 7.75 0
1.75 7.75 0
2.75 7.75 0
3.75 7.75 0
4.75 7.75 0
5.75 7.75 0
6.75 7.75 0
7.75 7.75 0
8.75 7.75 0
9.75 7.75 0
10.75 7.75 0
11.75 7.75 0
12.75 7.75 0
13.75 7.75 0
14.75 7.75 0
15.75 7.75 0
16.75 7.75 0
17.75 7.75 0
18.75 7.75 0
19.75 7.75 0
20.75 7.75 0
21.75 7.75 0
[...]
POINT_DATA 5000
VECTORS velocity float
-0.214154 -0.214154 0.953035
-0.0555331 -0.264971 0.962656
0.125223 -0.377467 0.917517
0.283912 -0.516119 0.808093
0.39517 -0.654649 0.644419
0.44873 -0.774499 0.445863
0.445181 -0.864547 0.233179
0.390916 -0.9201 0.0245046
0.294671 -0.941256 -0.164945
0.166524 -0.93166 -0.322923
0.0174815 -0.897296 -0.441083
-0.141356 -0.845024 -0.515707
-0.299797 -0.781253 -0.547508
-0.449304 -0.711188 -0.540683
-0.583398 -0.638675 -0.501738
-0.697832 -0.56641 -0.438417
-0.790601 -0.496217 -0.358773
-0.861747 -0.429269 -0.270407
-0.912972 -0.366228 -0.179884
-0.947102 -0.307341 -0.0924073
-0.967519 -0.252526 -0.0117236
-0.977672 -0.20146 0.0597662
-0.980715 -0.15366 0.120779
-0.979294 -0.108565 0.170869
-0.975463 -0.0656088 0.210158
-0.970692 -0.0242811 0.239099
-0.965936 0.0158248 0.258298
-0.961734 0.0549789 0.268412
-0.958305 0.0932961 0.270087
-0.95563 0.130733 0.263969
-0.953524 0.167102 0.250735
-0.951693 0.202112 0.231151
-0.949786 0.235412 0.206125
-0.94745 0.266658 0.176727
-0.944385 0.29555 0.144179
-0.940396 0.321872 0.109792
-0.935426 0.345502 0.0748733
-0.929559 0.366427 0.0406265
-0.922975 0.384775 0.00805242
-0.91587 0.400865 -0.0221171
-0.908346 0.415286 -0.0494545
-0.900293 0.428975 -0.0738425
-0.891281 0.44329 -0.0954592
-0.880475 0.459997 -0.114748
-0.866618 0.4811 -0.132346
-0.848168 0.50838 -0.148865
-0.823669 0.542708 -0.164429
-0.7923 0.583563 -0.178084
-0.754401 0.629157 -0.187192
-0.713141 0.675516 -0.187371
-0.147562 -0.147562 0.977983
0.0525557 -0.226316 0.972635
0.247858 -0.355451 0.901233
0.400852 -0.502565 0.765994
0.493549 -0.642768 0.585884
0.523469 -0.760447 0.384319
0.497285 -0.84849 0.181031
0.424409 -0.905423 -0.00922536
0.314532 -0.932982 -0.174967
0.1776 -0.93481 -0.307552
0.0237404 -0.91544 -0.401755
-0.137275 -0.879316 -0.456024
-0.296588 -0.830176 -0.472062
-0.446586 -0.770962 -0.454069
-0.581133 -0.70414 -0.40801
-0.695867 -0.632077 -0.340951
-0.788492 -0.557214 -0.260371
-0.858862 -0.481955 -0.173423
-0.908717 -0.408398 -0.0862815
-0.941104 -0.338095 -0.00375386
-0.9597 -0.271957 0.0708138
-0.968217 -0.210296 0.135391
-0.96999 -0.152962 0.189001
-0.96775 -0.0995057 0.231429
-0.963546 -0.0493331 0.262956
-0.958782 -0.00184096 0.284138
-0.954305 0.0434838 0.295655
-0.950523 0.0869991 0.298223
-0.947522 0.128875 0.292564
-0.945159 0.169096 0.279431
-0.943148 0.207492 0.259652
-0.941128 0.243801 0.234179
-0.938724 0.277729 0.204119
-0.93561 0.309012 0.170719
-0.931566 0.337452 0.135316
-0.926519 0.362924 0.0992443
-0.92055 0.385391 0.0637341
-0.913868 0.404916 0.0298097
-0.90673 0.421708 -0.00178311
-0.899334 0.436189 -0.0306198
-0.891697 0.449078 -0.0566097
-0.883535 0.461485 -0.0799859
-0.874153 0.474974 -0.101279
-0.862373 0.491536 -0.121264
-0.84655 0.513352 -0.140793
-0.824788 0.542225 -0.160361
-0.795487 0.578831 -0.179317
-0.758116 0.622345 -0.194799
-0.714759 0.669979 -0.20062
-0.675516 0.713141 -0.187371
-0.264971 -0.0555331 0.962656
-0.0744748 -0.0744748 0.994438
0.149066 -0.176422 0.972962
0.349174 -0.3216 0.880143
0.492465 -0.478577 0.72694
0.566716 -0.623688 0.538374
0.57601 -0.743708 0.33928
0.531405 -0.834171 0.147538
0.444364 -0.895506 -0.0246767
0.325353 -0.93042 -0.168714
0.184039 -0.942493 -0.278992
0.0292819 -0.935156 -0.353023
-0.130967 -0.911012 -0.391031
-0.289518 -0.871726 -0.395314
-0.439687 -0.818514 -0.369743
-0.575339 -0.752922 -0.319521
-0.691449 -0.677428 -0.250978
-0.784945 -0.595482 -0.171063
-0.855249 -0.510936 -0.0865654
-0.904122 -0.427262 -0.00333031
-0.934928 -0.346995 0.0741885
-0.951735 -0.27158 0.142985
-0.958571 -0.201536 0.201307
-0.958968 -0.136725 0.248369
-0.955733 -0.0766278 0.284081
-0.950905 -0.0205656 0.308798
-0.945808 0.0321287 0.323132
-0.941176 0.0819936 0.32782
-0.937288 0.129372 0.323658
-0.934108 0.174392 0.311497
-0.931395 0.216995 0.292262
-0.928798 0.256992 0.267
-0.925937 0.294143 0.236898
-0.92247 0.328221 0.203272
-0.918161 0.359055 0.167509
-0.912924 0.38654 0.130982
-0.90684 0.410642 0.0949459
-0.900131 0.431407 0.0604342
-0.893088 0.448998 0.0281907
-0.885964 0.463752 -0.00137337
-0.878851 0.476262 -0.0281907
-0.87156 0.487467 -0.0525254
-0.863501 0.498748 -0.0749455
-0.853597 0.51196 -0.0962751
-0.840236 0.529342 -0.117481
-0.821367 0.55312 -0.139333
-0.794925 0.584771 -0.161672
-0.759636 0.624267 -0.182331
-0.71623 0.669671 -0.196356
-0.669979 0.714759 -0.20062
-0.226316 0.0525557 0.972635
0.000480653 0.000480653 1
0.23907 -0.121501 0.963371
0.439304 -0.281472 0.853104
0.570718 -0.448766 0.68767
0.627035 -0.600401 0.496332
0.618196 -0.72502 0.303611
0.558448 -0.820022 0.1253
0.460676 -0.887104 -0.0287069
0.335675 -0.929575 -0.152356
0.19235 -0.950826 -0.242758
0.0379098 -0.953318 -0.29958
-0.121616 -0.938133 -0.324216
-0.280483 -0.905259 -0.319117
-0.432441 -0.854551 -0.287642
-0.570718 -0.78701 -0.234299
-0.689109 -0.705652 -0.164877
-0.783595 -0.615291 -0.0860018
-0.853342 -0.521335 -0.00418849
-0.90046 -0.428414 0.0750617
-0.928891 -0.339637 0.147678
-0.943213 -0.256588 0.210978
-0.947793 -0.179711 0.263425
-0.946331 -0.108749 0.304354
-0.941681 -0.043087 0.333737
-0.935835 0.0179942 0.351978
-0.930018 0.0751484 0.35975
-0.924833 0.128855 0.357882
-0.920434 0.179372 0.347313
-0.916672 0.226751 0.329085
-0.913225 0.27089 0.304365
-0.909709 0.311615 0.274455
-0.90576 0.348755 0.240768
-0.901112 0.382183 0.204778
-0.895656 0.411829 0.167922
-0.889463 0.43768 0.131497
-0.882764 0.459786 0.0965624
-0.875877 0.478288 0.0638656
-0.869103 0.493474 0.0338072
-0.862598 0.50585 0.00643222
-0.856249 0.51623 -0.0185534
-0.84956 0.525837 -0.041749
-0.841551 0.536372 -0.0640115
-0.830686 0.550001 -0.0863705
-0.814899 0.569108 -0.109797
-0.791857 0.595685 -0.134618
-0.759676 0.630418 -0.159577
-0.718009 0.672029 -0.181217
-0.669671 0.71623 -0.196356
-0.629157 0.754401 -0.187192
-0.377467 0.125223 0.917517
-0.176422 0.149066 0.972962
0.0750764 0.0750764 0.994348
0.324056 -0.0633342 0.943916
0.521054 -0.237092 0.819933
0.639178 -0.414889 0.647548
0.678636 -0.574042 0.458181
0.654152 -0.704638 0.274899
0.58219 -0.805382 0.111422
0.476486 -0.87884 -0.0245315
0.34762 -0.928676 -0.129311
0.203267 -0.958011 -0.202233
0.0488231 -0.968429 -0.24446
-0.111387 -0.959712 -0.257967
-0.272534 -0.930418 -0.245045
-0.428086 -0.879349 -0.208538
-0.569988 -0.80738 -0.152485
-0.690589 -0.718536 -0.0824177
-0.785153 -0.619283 -0.00478817
-0.853081 -0.516477 0.0741904
-0.897232 -0.415501 0.149445
-0.922298 -0.319596 0.217312
-0.93337 -0.230191 0.275379
-0.935091 -0.147539 0.322236
-0.931277 -0.0712703 0.357272
-0.924783 -0.000748197 0.380495
-0.917528 0.0646977 0.392374
-0.910619 0.125621 0.39369
-0.90453 0.182381 0.385439
-0.899286 0.235131 0.36878
-0.894641 0.283865 0.345018
-0.890219 0.328496 0.315596
-0.885626 0.368931 0.282057
-0.880555 0.405111 0.245983
-0.874853 0.437026 0.208904
-0.868563 0.464705 0.172182
-0.861913 0.48822 0.136919
-0.855242 0.507711 0.103881
-0.848894 0.523433 0.0734657
-0.843086 0.535833 0.0457003
-0.837782 0.545628 0.0202606
-0.832571 0.553908 -0.00348658
-0.826561 0.562226 -0.0264298
-0.818311 0.572628 -0.0496393
-0.805799 0.58752 -0.0742129
-0.786578 0.609197 -0.100864
-0.758314 0.638968 -0.129148
-0.719784 0.67624 -0.156878
-0.672029 0.718009 -0.181217
-0.622345 0.758116 -0.194799
-0.355451 0.247858 0.901233
-0.121501 0.23907 0.963371
0.149293 0.149293 0.977458
0.404687 -0.00330052 0.91445
0.595403 -0.190108 0.780612
0.699571 -0.378317 0.606199
0.723681 -0.54549 0.422759
0.685983 -0.682824 0.251353
0.604365 -0.789934 0.103673
0.492854 -0.869988 -0.0146699
0.3613 -0.926841 -0.102122
0.215881 -0.963281 -0.159642
0.0602829 -0.980072 -0.189275
-0.102432 -0.975806 -0.193159
-0.267674 -0.947794 -0.173311
-0.42792 -0.894092 -0.132224
-0.573413 -0.815939 -0.0737599
-0.695187 -0.718821 -0.00339319
-0.788345 -0.610932 0.0726303
-0.85306 -0.500223 0.148543
-0.893178 -0.392337 0.219783
-0.914115 -0.290309 0.283045
-0.921366 -0.195296 0.336073
-0.919765 -0.107406 0.377487
-0.913191 -0.0262652 0.406684
-0.904481 0.0486668 0.423728
-0.895474 0.117913 0.429212
-0.887159 0.181867 0.424114
-0.879882 0.240756 0.409688
-0.873555 0.29467 0.387391
-0.867851 0.343622 0.358829
-0.862359 0.387624 0.325706
-0.856715 0.426718 0.289742
-0.850703 0.460987 0.252578
-0.844314 0.490532 0.215664
-0.83775 0.515477 0.180162
-0.831356 0.535981 0.146872
-0.825511 0.552294 0.116201
-0.820493 0.564817 0.0881647
-0.816339 0.574191 0.062413
-0.812723 0.581391 0.0382785
-0.808847 0.587832 0.0148377
-0.803356 0.595431 -0.00901287
-0.794309 0.606537 -0.0344444
-0.77924 0.623608 -0.0624284
-0.75553 0.648458 -0.0931517
-0.721253 0.681224 -0.12541
-0.67624 0.719784 -0.156878
-0.624267 0.759636 -0.182331
-0.583563 0.7923 -0.178084
-0.516119 0.283912 0.808093
-0.3216 0.349174 0.880143
-0.0633342 0.324056 0.943916
0.222427 0.222427 0.949238
0.48024 0.0569575 0.875286
0.662244 -0.142064 0.735698
0.752684 -0.34023 0.563658
0.763326 -0.515494 0.389358
0.714771 -0.659873 0.231668
0.625672 -0.773613 0.100292
0.509817 -0.860282 -0.00111396
0.375969 -0.923777 -0.072683
0.228776 -0.966489 -0.116454
0.0705258 -0.988348 -0.134886
-0.0964044 -0.986808 -0.130059
-0.266964 -0.958103 -0.103778
-0.432068 -0.899945 -0.0584463
-0.580171 -0.814492 0.00201027
-0.701495 -0.709012 0.072161
-0.79166 -0.593225 0.146149
-0.851988 -0.475644 0.218813
-0.887303 -0.361724 0.286093
-0.903581 -0.254125 0.344908
-0.90658 -0.153789 0.393015
-0.901259 -0.0608326 0.42899
-0.891547 0.0249578 0.452241
-0.880271 0.103903 0.462955
-0.869203 0.176307 0.461955
-0.859224 0.242398 0.45053
-0.850563 0.302327 0.43028
-0.84303 0.356213 0.403004
-0.836234 0.404189 0.3706
-0.829757 0.446436 0.33496
-0.823301 0.483167 0.297868
-0.816777 0.514603 0.260882
-0.81033 0.540955 0.225239
-0.804286 0.562443 0.191786
-0.799042 0.579333 0.160949
-0.794922 0.592011 0.132744
-0.792037 0.601058 0.106799
-0.790146 0.607353 0.0824147
-0.788541 0.612181 0.0586301
-0.785959 0.617326 0.0343085
-0.78054 0.625052 0.00823561
-0.769862 0.637874 -0.0207078
-0.751162 0.657975 -0.0531454
-0.721989 0.686205 -0.0886215
-0.681224 0.721253 -0.12541
-0.630418 0.759676 -0.159577
-0.578831 0.795487 -0.179317
-0.502565 0.400852 0.765994
-0.281472 0.439304 0.853104
-0.00330052 0.404687 0.91445
0.293083 0.293083 0.910058
0.549546 0.115811 0.827398
0.721373 -0.0942279 0.686106
0.799084 -0.301538 0.520133
0.798347 -0.484612 0.357483
0.741144 -0.636052 0.214811
0.646315 -0.756504 0.0998906
0.526982 -0.84975 0.0146748
0.390656 -0.919569 -0.0422
0.24062 -0.967841 -0.0733877
0.0782122 -0.993603 -0.0814673
-0.0942497 -0.993194 -0.0684252
-0.270603 -0.962016 -0.0360428
-0.439858 -0.897971 0.0131082
-0.588957 -0.804682 0.0749462
-0.708039 -0.691281 0.144261
-0.793837 -0.568541 0.215834
-0.848933 -0.444952 0.285186
-0.878931 -0.325479 0.348633
-0.890147 -0.212425 0.40313
-0.888491 -0.106705 0.446315
-0.87903 -0.00866725 0.476688
-0.865776 0.0815687 0.493739
-0.851584 0.164007 0.497903
-0.838183 0.238725 0.490367
-0.826364 0.305852 0.472839
-0.816244 0.365577 0.447325
-0.807537 0.418165 0.41596
-0.799805 0.463959 0.38086
-0.79266 0.503351 0.343989
-0.785905 0.536729 0.307042
-0.779593 0.564449 0.271352
-0.773992 0.586837 0.237821
-0.769482 0.604225 0.206905
-0.766414 0.617012 0.178622
-0.764955 0.625747 0.152589
-0.764947 0.631231 0.128077
-0.765771 0.634634 0.104085
-0.766253 0.637609 0.0794426
-0.764614 0.642314 0.0529031
-0.758496 0.651262 0.0232749
-0.7451 0.666873 -0.0103289
-0.721632 0.690611 -0.0480054
-0.686205 0.721989 -0.0886215
-0.638968 0.758314 -0.129148
-0.584771 0.794925 -0.161672
-0.542708 0.823669 -0.164429
-0.654649 0.39517 0.644419
-0.478577 0.492465 0.72694
-0.237092 0.521054 0.819933
0.0569575 0.48024 0.875286
0.359651 0.359651 0.860989
0.611614 0.171881 0.77226
0.772788 -0.0475911 0.632878
0.839271 -0.262947 0.475902
0.829291 -0.45331 0.326783
0.765423 -0.611667 0.199976
0.666184 -0.738856 0.101447
0.543742 -0.838651 0.0317599
0.404374 -0.914524 -0.0112619
0.250302 -0.967685 -0.0305623
0.0824271 -0.996183 -0.0287256
-0.096358 -0.995317 -0.00775405
-0.278238 -0.960033 0.0303491
-0.450252 -0.889066 0.082678
-0.598422 -0.787931 0.145108
-0.713602 -0.667398 0.212962
-0.793996 -0.53863 0.281865
-0.843305 -0.409583 0.347964
-0.86761 -0.284619 0.407731
-0.873367 -0.165866 0.457951
-0.866583 -0.0544994 0.496048
-0.85248 0.0486496 0.520492
-0.83523 0.142976 0.530988
-0.817778 0.22814 0.528385
-0.801844 0.30407 0.514381
-0.78813 0.370931 0.491183
-0.776637 0.429092 0.46121
-0.766992 0.479076 0.426861
-0.758736 0.521489 0.390343
-0.751547 0.556949 0.353532
-0.745341 0.586022 0.317877
-0.74028 0.609204 0.284352
-0.736682 0.62695 0.253443
-0.734883 0.639721 0.225177
-0.735078 0.648071 0.199157
-0.737173 0.652748 0.17463
-0.740631 0.654826 0.150561
-0.744361 0.655833 0.125736
-0.746661 0.657815 0.0988812
-0.745238 0.663243 0.0687713
-0.737318 0.67467 0.0343891
-0.719931 0.694029 -0.00473472
-0.690611 0.721632 -0.0480054
-0.648458 0.75553 -0.0931517
-0.595685 0.791857 -0.134618
-0.542225 0.824788 -0.160361
-0.642768 0.493549 0.585884
-0.448766 0.570718 0.68767
-0.190108 0.595403 0.780612
0.115811 0.549546 0.827398
0.420756 0.420756 0.803697
0.665903 0.224152 0.711568
0.8167 -0.0029072 0.577055
0.873696 -0.225033 0.431295
0.856532 -0.42203 0.297057
0.787701 -0.587107 0.186634
0.68497 -0.721058 0.10436
0.559412 -0.827396 0.0497388
0.41622 -0.909042 0.0200979
0.256939 -0.966348 0.0123708
0.0825854 -0.996297 0.0239264
-0.102752 -0.993319 0.0525365
-0.289222 -0.952461 0.0957552
-0.462141 -0.873969 0.15035
-0.607427 -0.765435 0.212465
-0.717337 -0.638727 0.278309
-0.791624 -0.504673 0.344436
-0.834778 -0.370334 0.407428
-0.853029 -0.239551 0.463634
-0.852822 -0.114598 0.509473
-0.84029 0.00273507 0.54213
-0.820927 0.110883 0.560165
-0.799186 0.208672 0.5637
-0.778174 0.295488 0.554194
-0.759619 0.371269 0.533983
-0.744126 0.436392 0.505805
-0.731568 0.491548 0.472428
-0.7215 0.537594 0.436382
-0.713474 0.575434 0.399787
-0.707237 0.60592 0.364248
-0.702785 0.629802 0.330822
-0.700308 0.647729 0.300027
-0.700065 0.660291 0.27189
-0.702233 0.668096 0.246003
-0.706743 0.671874 0.221585
-0.713121 0.672626 0.197568
-0.720346 0.671772 0.1727
-0.726781 0.671245 0.145671
-0.730194 0.673451 0.11524
-0.727857 0.681006 0.0803415
-0.716749 0.696166 0.040299
-0.694029 0.719931 -0.00473472
-0.657975 0.751162 -0.0531454
-0.609197 0.786578 -0.100864
-0.55312 0.821367 -0.139333
-0.50838 0.848168 -0.148865
-0.774499 0.44873 0.445863
-0.623688 0.566716 0.538374
-0.414889 0.639178 0.647548
-0.142064 0.662244 0.735698
0.171881 0.611614 0.77226
0.4755 0.4755 0.740135
0.712339 0.271979 0.646994
0.853497 0.0392779 0.519616
0.902789 -0.188272 0.386686
0.880334 -0.391212 0.268263
0.807942 -0.562816 0.174553
0.702297 -0.703573 0.108462
0.573347 -0.816427 0.0687078
0.425433 -0.903477 0.0523118
0.259866 -0.964014 0.0560975
0.0783669 -0.99393 0.0772184
-0.113203 -0.987129 0.11297
-0.302781 -0.939473 0.160353
-0.474523 -0.853319 0.216042
-0.615149 -0.738185 0.276902
-0.718774 -0.606258 0.340316
-0.786512 -0.467361 0.403699
-0.823209 -0.327493 0.463762
-0.834936 -0.190225 0.516426
-0.828061 -0.0584116 0.557587
-0.808964 0.0651414 0.584238
-0.7836 0.177924 0.595243
-0.756861 0.278208 0.591407
-0.732081 0.365275 0.575006
-0.710989 0.439296 0.549102
-0.694066 0.501056 0.516929
-0.681061 0.551681 0.48146
-0.671469 0.592428 0.445149
-0.664848 0.624523 0.409815
-0.660967 0.649064 0.376614
-0.659809 0.666989 0.346089
-0.66147 0.679097 0.318252
-0.666029 0.686113 0.292667
-0.673385 0.688802 0.268523
-0.683083 0.688121 0.244717
-0.694148 0.685403 0.219958
-0.704992 0.682477 0.192902
-0.713424 0.68168 0.162292
-0.716768 0.685638 0.127058
-0.712021 0.696817 0.0864441
-0.696166 0.716749 0.040299
-0.666873 0.7451 -0.0103289
-0.623608 0.77924 -0.0624284
-0.569108 0.814899 -0.109797
-0.513352 0.84655 -0.140793
-0.760447 0.523469 0.384319
-0.600401 0.627035 0.496332
-0.378317 0.699571 0.606199
-0.0942279 0.721373 0.686106
0.224152 0.665903 0.711568
0.523502 0.523502 0.672228
0.751213 0.315052 0.580018
0.883691 0.0786128 0.461421
0.926986 -0.153038 0.342456
0.90092 -0.36125 0.240501
0.826089 -0.539214 0.163781
0.71784 -0.686816 0.113968
0.585031 -0.806094 0.0891699
0.431448 -0.898015 0.0861501
0.258653 -0.960624 0.101493
0.069701 -0.988813 0.131876
-0.127273 -0.976503 0.173905
-0.318101 -0.921187 0.224114
-0.486591 -0.827701 0.279535
-0.621104 -0.706977 0.33825
-0.717777 -0.570636 0.398962
-0.778688 -0.426966 0.459723
-0.808576 -0.280917 0.517002
-0.813098 -0.136189 0.565972
-0.798571 0.0032419 0.601892
-0.771854 0.133125 0.621707
-0.739637 0.249851 0.624909
-0.707424 0.351261 0.613324
-0.678817 0.436811 0.590257
-0.655519 0.507182 0.559519
-0.637862 0.563763 0.524694
-0.625463 0.608239 0.488714
-0.61773 0.64232 0.45369
-0.614159 0.66757 0.420902
-0.614428 0.685329 0.390901
-0.618359 0.696702 0.363646
-0.625822 0.702616 0.338641
-0.636588 0.703928 0.315026
-0.650152 0.701597 0.291656
-0.665539 0.696892 0.267205
-0.681177 0.69156 0.240295
-0.694899 0.687867 0.209652
-0.704061 0.688436 0.174225
-0.705716 0.69585 0.133257
-0.696817 0.712021 0.0864441
-0.67467 0.737318 0.0343891
-0.637874 0.769862 -0.0207078
-0.58752 0.805799 -0.0742129
-0.529342 0.840236 -0.117481
-0.4811 0.866618 -0.132346
-0.864547 0.445181 0.233179
-0.743708 0.57601 0.33928
-0.574042 0.678636 0.458181
-0.34023 0.752684 0.563658
-0.0475911 0.772788 0.632878
0.271979 0.712339 0.646994
0.564806 0.564806 0.601655
0.783051 0.353328 0.51185
0.907878 0.114923 0.403176
0.946745 -0.119581 0.298956
0.918531 -0.332439 0.213973
0.84215 -0.516609 0.154591
0.7314 -0.671059 0.121387
0.594131 -0.796545 0.111914
0.433906 -0.89258 0.12258
0.2531 -0.955823 0.149473
0.0567557 -0.980432 0.188501
-0.144365 -0.961096 0.235486
-0.334406 -0.897718 0.286835
-0.497796 -0.797638 0.340548
-0.625154 -0.672385 0.396335
-0.714508 -0.532154 0.454191
-0.768391 -0.383333 0.512475
-0.790967 -0.229988 0.566989
-0.787289 -0.076475 0.611823
-0.763763 0.0714382 0.641531
-0.728094 0.20756 0.653298
-0.688066 0.327088 0.647748
-0.649983 0.427708 0.628162
-0.617731 0.50947 0.59904
-0.592946 0.573924 0.564824
-0.575762 0.623297 0.529149
-0.565594 0.659944 0.494548
-0.561663 0.686054 0.462456
-0.563249 0.703507 0.433391
-0.569761 0.713838 0.407195
-0.580704 0.718268 0.383242
-0.595582 0.71782 0.360578
-0.613729 0.713507 0.338002
-0.634092 0.706567 0.314149
-0.655068 0.698687 0.287617
-0.674473 0.692079 0.257123
-0.68968 0.68936 0.221639
-0.697799 0.693188 0.180461
-0.69585 0.705716 0.133257
-0.681006 0.727857 0.0803415
-0.651262 0.758496 0.0232749
-0.606537 0.794309 -0.0344444
-0.550001 0.830686 -0.0863705
-0.491536 0.862373 -0.121264
-0.84849 0.497285 0.181031
-0.72502 0.618196 0.303611
-0.54549 0.723681 0.422759
-0.301538 0.799084 0.520133
-0.0029072 0.8167 0.577055
0.315052 0.751213 0.580018
0.599732 0.599732 0.529756
0.808488 0.386954 0.443411
0.926674 0.148183 0.345424
0.962527 -0.0880246 0.256503
0.933439 -0.304932 0.188965
0.856213 -0.495139 0.147432
0.74291 -0.65636 0.131442
0.60047 -0.787665 0.137913
0.432623 -0.886782 0.162648
0.243206 -0.948945 0.200885
0.0399005 -0.968065 0.247502
-0.163799 -0.940513 0.297668
-0.351075 -0.869179 0.348244
-0.507923 -0.763508 0.398835
-0.627536 -0.634652 0.451016
-0.709467 -0.490633 0.505901
-0.756131 -0.335709 0.561752
-0.770659 -0.173308 0.613229
-0.757343 -0.00915587 0.652953
-0.722958 0.148243 0.6748
-0.676625 0.290111 0.676768
-0.627723 0.410501 0.661402
-0.58356 0.507528 0.633934
-0.548287 0.582505 0.600058
-0.523347 0.638334 0.56448
-0.508539 0.678304 0.53037
-0.502914 0.705484 0.499369
-0.505297 0.72249 0.471894
-0.514519 0.731421 0.447541
-0.529521 0.733904 0.425433
-0.549337 0.731207 0.404431
-0.572973 0.724453 0.383236
-0.599177 0.714891 0.360442
-0.626229 0.704172 0.334632
-0.651884 0.694483 0.304534
-0.67349 0.688449 0.269162
-0.688213 0.688787 0.227893
-0.693188 0.697799 0.180461
-0.685638 0.716768 0.127058
-0.663243 0.745238 0.0687713
-0.625052 0.78054 0.00823561
-0.572628 0.818311 -0.0496393
-0.51196 0.853597 -0.0962751
-0.459997 0.880475 -0.114748
-0.9201 0.390916 0.0245046