# vtk DataFile Version 2.0
tmp/0.000.00-10.000.000.001.0072.vtk
ASCII
DATASET UNSTRUCTURED_GRID
POINTS 5101 float
0 0 0
1 0 0
2 0 0
3 0 0
4 0 0
5 0 0
6 0 0
7 0 0
8 0 0
9 0 0
10 0 0
11 0 0
12 0 0
13 0 0
14 0 0
15 0 0
16 0 0
17 0 0
18 0 0
19 0 0
20 0 0
21 0 0
22 0 0
23 0 0
24 0 0
25 0 0
26 0 0
27 0 0
28 0 0
29 0 0
30 0 0
31 0 0
32 0 0
33 0 0
34 0 0
35 0 0
36 0 0
37 0 0
38 0 0
39 0 0
40 0 0
41 0 0
42 0 0
43 0 0
44 0 0
45 0 0
46 0 0
47 0 0
48 0 0
49 0 0
50 0 0
0.5 0.5 0
1.5 0.5 0
2.5 0.5 0
3.5 0.5 0
4.5 0.5 0
5.5 0.5 0
6.5 0.5 0
7.5 0.5 0
8.5 0.5 0
9.5 0.5 0
10.5 0.5 0
11.5 0.5 0
12.5 0.5 0
13.5 0.5 0
14.5 0.5 0
15.5 0.5 0
16.5 0.5 0
17.5 0.5 0
18.5 0.5 0
19.5 0.5 0
20.5 0.5 0
21.5 0.5 0
22.5 0.5 0
23.5 0.5 0
24.5 0.5 0
25.5 0.5 0
26.5 0.5 0
27.5 0.5 0
28.5 0.5 0
29.5 0.5 0
30.5 0.5 0
31.5 0.5 0
32.5 0.5 0
33.5 0.5 0
34.5 0.5 0
35.5 0.5 0
36.5 0.5 0
37.5 0.5 0
38.5 0.5 0
39.5 0.5 0
40.5 0.5 0
41.5 0.5 0
42.5 0.5 0
43.5 0.5 0
44.5 0.5 0
45.5 0.5 0
46.5 0.5 0
47.5 0.5 0
48.5 0.5 0
49.5 0.5 0
0 1 0
1 1 0
2 1 0
3 1 0
4 1 0
5 1 0
6 1 0
7 1 0
8 1 0
9 1 0
10 1 0
11 1 0
12 1 0
13 1 0
14 1 0
15 1 0
16 1 0
17 1 0
18 1 0
19 1 0
20 1 0
21 1 0
22 1 0
23 1 0
24 1 0
25 1 0
26 1 0
27 1 0
28 1 0
29 1 0
30 1 0
31 1 0
32 1 0
33 1 0
34 1 0
35 1 0
36 1 0
37 1 0
38 1 0
39 1 0
40 1 0
41 1 0
42 1 0
43 1 0
44 1 0
45 1 0
46 1 0
47 1 0
48 1 0
49 1 0
50 1 0
0.5 1.5 0
1.5 1.5 0
2.5 1.5 0
3.5 1.5 0
4.5 1.5 0
5.5 1.5 0
6.5 1.5 0
7.5 1.5 0
8.5 1.5 0
9.5 1.5 0
10.5 1.5 0
11.5 1.5 0
12.5 1.5 0
13.5 1.5 0
14.5 1.5 0
15.5 1.5 0
16.5 1.5 0
17.5 1.5 0
18.5 1.5 0
19.5 1.5 0
20.5 1.5 0
21.5 1.5 0
22.5 1.5 0
23.5 1.5 0
24.5 1.5 0
25.5 1.5 0
26.5 1.5 0
27.5 1.5 0
28.5 1.5 0
29.5 1.5 0
30.5 1.5 0
31.5 1.5 0
32.5 1.5 0
33.5 1.5 0
34.5 1.5 0
35.5 1.5 0
36.5 1.5 0
37.5 1.5 0
38.5 1.5 0
39.5 1.5 0
40.5 1.5 0
41.5 1.5 0
42.5 1.5 0
43.5 1.5 0
44.5 1.5 0
45.5 1.5 0
46.5 1.5 0
47.5 1.5 0
48.5 1.5 0
49.5 1.5 0
0 2 0
1 2 0
2 2 0
3 2 0
4 2 0
5 2 0
6 2 0
7 2 0
8 2 0
9 2 0
10 2 0
11 2 0
12 2 0
13 2 0
14 2 0
15 2 0
16 2 0
17 2 0
18 2 0
19 2 0
20 2 0
21 2 0
22 2 0
23 2 0
24 2 0
25 2 0
26 2 0
27 2 0
28 2 0
29 2 0
30 2 0
31 2 0
32 2 0
33 2 0
34 2 0
35 2 0
36 2 0
37 2 0
38 2 0
39 2 0
40 2 0
41 2 0
42 2 0
43 2 0
44 2 0
45 2 0
46 2 0
47 2 0
48 2 0
49 2 0
50 2 0
0.5 2.5 0
1.5 2.5 0
2.5 2.5 0
3.5 2.5 0
4.5 2.5 0
5.5 2.5 0
6.5 2.5 0
7.5 2.5 0
8.5 2.5 0
9.5 2.5 0
10.5 2.5 0
11.5 2.5 0
12.5 2.5 0
13.5 2.5 0
14.5 2.5 0
15.5 2.5 0
16.5 2.5 0
17.5 2.5 0
18.5 2.5 0
19.5 2.5 0
20.5 2.5 0
21.5 2.5 0
22.5 2.5 0
23.5 2.5 0
24.5 2.5 0
25.5 2.5 0
26.5 2.5 0
27.5 2.5 0
28.5 2.5 0
29.5 2.5 0
30.5 2.5 0
31.5 2.5 0
32.5 2.5 0
33.5 2.5 0
34.5 2.5 0
35.5 2.5 0
36.5 2.5 0
37.5 2.5 0
38.5 2.5 0
39.5 2.5 0
40.5 2.5 0
41.5 2.5 0
42.5 2.5 0
43.5 2.5 0
44.5 2.5 0
45.5 2.5 0
46.5 2.5 0
47.5 2.5 0
48.5 2.5 0
49.5 2.5 0
0 3 0
1 3 0
2 3 0
3 3 0
4 3 0
5 3 0
6 3 0
7 3 0
8 3 0
9 3 0
10 3 0
11 3 0
12 3 0
13 3 0
14 3 0
15 3 0
16 3 0
17 3 0
18 3 0
19 3 0
20 3 0
21 3 0
22 3 0
23 3 0
24 3 0
25 3 0
26 3 0
27 3 0
28 3 0
29 3 0
30 3 0
31 3 0
32 3 0
33 3 0
34 3 0
35 3 0
36 3 0
37 3 0
38 3 0
39 3 0
40 3 0
41 3 0
42 3 0
43 3 0
44 3 0
45 3 0
46 3 0
47 3 0
48 3 0
49 3 0
50 3 0
0.5 3.5 0
1.5 3.5 0
2.5 3.5 0
3.5 3.5 0
4.5 3.5 0
5.5 3.5 0
6.5 3.5 0
7.5 3.5 0
8.5 3.5 0
9.5 3.5 0
10.5 3.5 0
11.5 3.5 0
12.5 3.5 0
13.5 3.5 0
14.5 3.5 0
15.5 3.5 0
16.5 3.5 0
17.5 3.5 0
18.5 3.5 0
19.5 3.5 0
20.5 3.5 0
21.5 3.5 0
22.5 3.5 0
23.5 3.5 0
24.5 3.5 0
25.5 3.5 0
26.5 3.5 0
27.5 3.5 0
28.5 3.5 0
29.5 3.5 0
30.5 3.5 0
31.5 3.5 0
32.5 3.5 0
33.5 3.5 0
34.5 3.5 0
35.5 3.5 0
36.5 3.5 0
37.5 3.5 0
38.5 3.5 0
39.5 3.5 0
40.5 3.5 0
41.5 3.5 0
42.5 3.5 0
43.5 3.5 0
44.5 3.5 0
45.5 3.5 0
46.5 3.5 0
47.5 3.5 0
48.5 3.5 0
49.5 3.5 0
0 4 0
1 4 0
2 4 0
3 4 0
4 4 0
5 4 0
6 4 0
7 4 0
8 4 0
9 4 0
10 4 0
11 4 0
12 4 0
13 4 0
14 4 0
15 4 0
16 4 0
17 4 0
18 4 0
19 4 0
20 4 0
21 4 0
22 4 0
23 4 0
24 4 0
25 4 0
26 4 0
27 4 0
28 4 0
29 4 0
30 4 0
31 4 0
32 4 0
33 4 0
34 4 0
35 4 0
36 4 0
37 4 0
38 4 0
39 4 0
40 4 0
41 4 0
42 4 0
43 4 0
44 4 0
45 4 0
46 4 0
47 4 0
48 4 0
49 4 0
50 4 0
0.5 4.5 0
1.5 4.5 0
2.5 4.5 0
3.5 4.5 0
4.5 4.5 0
5.5 4.5 0
6.5 4.5 0
7.5 4.5 0
8.5 4.5 0
9.5 4.5 0
10.5 4.5 0
11.5 4.5 0
12.5 4.5 0
13.5 4.5 0
14.5 4.5 0
15.5 4.5 0
16.5 4.5 0
17.5 4.5 0
18.5 4.5 0
19.5 4.5 0
20.5 4.5 0
21.5 4.5 0
22.5 4.5 0
23.5 4.5 0
24.5 4.5 0
25.5 4.5 0
26.5 4.5 0
27.5 4.5 0
28.5 4.5 0
29.5 4.5 0
30.5 4.5 0
31.5 4.5 0
32.5 4.5 0
33.5 4.5 0
34.5 4.5 0
35.5 4.5 0
36.5 4.5 0
37.5 4.5 0
38.5 4.5 0
39.5 4.5 0
40.5 4.5 0
41.5 4.5 0
42.5 4.5 0
43.5 4.5 0
44.5 4.5 0
45.5 4.5 0
46.5 4.5 0
47.5 4.5 0
48.5 4.5 0
49.5 4.5 0
0 5 0
1 5 0
2 5 0
3 5 0
4 5 0
5 5 0
6 5 0
7 5 0
8 5 0
9 5 0
10 5 0
11 5 0
12 5 0
13 5 0
14 5 0
15 5 0
16 5 0
17 5 0
18 5 0
19 5 0
20 5 0
21 5 0
22 5 0
23 5 0
24 5 0
25 5 0
26 5 0
27 5 0
28 5 0
29 5 0
30 5 0
31 5 0
32 5 0
33 5 0
34 5 0
35 5 0
36 5 0
37 5 0
38 5 0
39 5 0
40 5 0
41 5 0
42 5 0
43 5 0
44 5 0
45 5 0
46 5 0
47 5 0
48 5 0
49 5 0
50 5 0
0.5 5.5 0
1.5 5.5 0
2.5 5.5 0
3.5 5.5 0
4.5 5.5 0
5.5 5.5 0
6.5 5.5 0
7.5 5.5 0
8.5 5.5 0
9.5 5.5 0
10.5 5.5 0
11.5 5.5 0
12.5 5.5 0
13.5 5.5 0
14.5 5.5 0
15.5 5.5 0
16.5 5.5 0
17.5 5.5 0
18.5 5.5 0
19.5 5.5 0
20.5 5.5 0
21.5 5.5 0
22.5 5.5 0
23.5 5.5 0
24.5 5.5 0
25.5 5.5 0
26.5 5.5 0
27.5 5.5 0
28.5 5.5 0
29.5 5.5 0
30.5 5.5 0
31.5 5.5 0
32.5 5.5 0
33.5 5.5 0
34.5 5.5 0
35.5 5.5 0
36.5 5.5 0
37.5 5.5 0
38.5 5.5 0
39.5 5.5 0
40.5 5.5 0
41.5 5.5 0
42.5 5.5 0
43.5 5.5 0
44.5 5.5 0
45.5 5.5 0
46.5 5.5 0
47.5 5.5 0
48.5 5.5 0
49.5 5.5 0
0 6 0
1 6 0
2 6 0
3 6 0
4 6 0
5 6 0
6 6 0
7 6 0
8 6 0
9 6 0
10 6 0
11 6 0
12 6 0
13 6 0
14 6 0
15 6 0
16 6 0
17 6 0
18 6 0
19 6 0
20 6 0
21 6 0
22 6 0
23 6 0
24 6 0
25 6 0
26 6 0
27 6 0
28 6 0
29 6 0
30 6 0
31 6 0
32 6 0
33 6 0
34 6 0
35 6 0
36 6 0
37 6 0
38 6 0
39 6 0
40 6 0
41 6 0
42 6 0
43 6 0
44 6 0
45 6 0
46 6 0
47 6 0
48 6 0
49 6 0
50 6 0
0.5 6.5 0
1.5 6.5 0
2.5 6.5 0
3.5 6.5 0
4.5 6.5 0
5.5 6.5 0
6.5 6.5 0
7.5 6.5 0
8.5 6.5 0
9.5 6.5 0
10.5 6.5 0
11.5 6.5 0
12.5 6.5 0
13.5 6.5 0
14.5 6.5 0
15.5 6.5 0
16.5 6.5 0
17.5 6.5 0
18.5 6.5 0
19.5 6.5 0
20.5 6.5 0
21.5 6.5 0
22.5 6.5 0
23.5 6.5 0
24.5 6.5 0
25.5 6.5 0
26.5 6.5 0
27.5 6.5 0
28.5 6.5 0
29.5 6.5 0
30.5 6.5 0
31.5 6.5 0
32.5 6.5 0
33.5 6.5 0
34.5 6.5 0
35.5 6.5 0
36.5 6.5 0
37.5 6.5 0
38.5 6.5 0
39.5 6.5 0
40.5 6.5 0
41.5 6.5 0
42.5 6.5 0
43.5 6.5 0
44.5 6.5 0
45.5 6.5 0
46.5 6.5 0
47.5 6.5 0
48.5 6.5 0
49.5 6.5 0
0 7 0
1 7 0
2 7 0
3 7 0
4 7 0
5 7 0
6 7 0
7 7 0
8 7 0
9 7 0
10 7 0
11 7 0
12 7 0
13 7 0
14 7 0
15 7 0
16 7 0
17 7 0
18 7 0
19 7 0
20 7 0
21 7 0
22 7 0
23 7 0
24 7 0
25 7 0
26 7 0
27 7 0
28 7 0
29 7 0
30 7 0
31 7 0
32 7 0
33 7 0
34 7 0
35 7 0
36 7 0
37 7 0
38 7 0
39 7 0
40 7 0
41 7 0
42 7 0
43 7 0
44 7 0
45 7 0
46 7 0
47 7 0
48 7 0
49 7 0
50 7 0
0.5 7.5 0
1.5 7.5 0
2.5 7.5 0
3.5 7.5 0
4.5 7.5 0
5.5 7.5 0
6.5 7.5 0
7.5 7.5 0
8.5 7.5 0
9.5 7.5 0
10.5 7.5 0
11.5 7.5 0
12.5 7.5 0
13.5 7.5 0
14.5 7.5 0
15.5 7.5 0
16.5 7.5 0
17.5 7.5 0
18.5 7.5 0
19.5 7.5 0
20.5 7.5 0
21.5 7.5 0
22.5 7.5 0
23.5 7.5 0
24.5 7.5 0
25.5 7.5 0
26.5 7.5 0
27.5 7.5 0
28.5 7.5 0
29.5 7.5 0
30.5 7.5 0
31.5 7.5 0
32.5 7.5 0
33.5 7.5 0
34.5 7.5 0
35.5 7.5 0
36.5 7.5 0
37.5 7.5 0
38.5 7.5 0
39.5 7.5 0
40.5 7.5 0
41.5 7.5 0
42.5 7.5 0
43.5 7.5 0
44.5 7.5 0
45.5 7.5 0
46.5 7.5 0
47.5 7.5 0
48.5 7.5 0
49.5 7.5 0
0 8 0
1 8 0
2 8 0
3 8 0
4 8 0
5 8 0
6 8 0
7 8 0
8 8 0
9 8 0
10 8 0
11 8 0
12 8 0
13 8 0
14 8 0
15 8 0
16 8 0
17 8 0
18 8 0
19 8 0
20 8 0
21 8 0
22 8 0
23 8 0
24 8 0
25 8 0
26 8 0
27 8 0
28 8 0
29 8 0
30 8 0
31 8 0
32 8 0
33 8 0
34 8 0
35 8 0
36 8 0
37 8 0
38 8 0
39 8 0
40 8 0
41 8 0
42 8 0
43 8 0
44 8 0
45 8 0
46 8 0
47 8 0
48 8 0
49 8 0
50 8 0
0.5 8.5 0
1.5 8.5 0
2.5 8.5 0
3.5 8.5 0
4.5 8.5 0
5.5 8.5 0
6.5 8.5 0
7.5 8.5 0
8.5 8.5 0
9.5 8.5 0
10.5 8.5 0
11.5 8.5 0
12.5 8.5 0
13.5 8.5 0
14.5 8.5 0
15.5 8.5 0
16.5 8.5 0
17.5 8.5 0
18.5 8.5 0
19.5 8.5 0
20.5 8.5 0
21.5 8.5 0
22.5 8.5 0
23.5 8.5 0
24.5 8.5 0
25.5 8.5 0
26.5 8.5 0
27.5 8.5 0
28.5 8.5 0
29.5 8.5 0
30.5 8.5 0
31.5 8.5 0
32.5 8.5 0
33.5 8.5 0
34.5 8.5 0
35.5 8.5 0
36.5 8.5 0
37.5 8.5 0
38.5 8.5 0
39.5 8.5 0
40.5 8.5 0
41.5 8.5 0
42.5 8.5 0
43.5 8.5 0
44.5 8.5 0
45.5 8.5 0
46.5 8.5 0
47.5 8.5 0
48.5 8.5 0
49.5 8.5 0
0 9 0
1 9 0
2 9 0
3 9 0
4 9 0
5 9 0
6 9 0
7 9 0
8 9 0
9 9 0
10 9 0
11 9 0
12 9 0
13 9 0
14 9 0
15 9 0
16 9 0
17 9 0
18 9 0
19 9 0
20 9 0
21 9 0
22 9 0
23 9 0
24 9 0
25 9 0
26 9 0
27 9 0
28 9 0
29 9 0
30 9 0
31 9 0
32 9 0
33 9 0
34 9 0
35 9 0
36 9 0
37 9 0
38 9 0
39 9 0
40 9 0
41 9 0
42 9 0
43 9 0
44 9 0
45 9 0
46 9 0
47 9 0
48 9 0
49 9 0
50 9 0
0.5 9.5 0
1.5 9.5 0
2.5 9.5 0
3.5 9.5 0
4.5 9.5 0
5.5 9.5 0
6.5 9.5 0
7.5 9.5 0
8.5 9.5 0
9.5 9.5 0
10.5 9.5 0
11.5 9.5 0
12.5 9.5 0
13.5 9.5 0
14.5 9.5 0
15.5 9.5 0
16.5 9.5 0
17.5 9.5 0
18.5 9.5 0
19.5 9.5 0
20.5 9.5 0
21.5 9.5 0
22.5 9.5 0
23.5 9.5 0
24.5 9.5 0
25.5 9.5 0
26.5 9.5 0
27.5 9.5 0
28.5 9.5 0
29.5 9.5 0
30.5 9.5 0
31.5 9.5 0
32.5 9.5 0
33.5 9.5 0
34.5 9.5 0
35.5 9.5 0
36.5 9.5 0
37.5 9.5 0
38.5 9.5 0
39.5 9.5 0
40.5 9.5 0
41.5 9.5 0
42.5 9.5 0
43.5 9.5 0
44.5 9.5 0
45.5 9.5 0
46.5 9.5 0
47.5 9.5 0
48.5 9.5 0
49.5 9.5 0
0 10 0
1 10 0
2 10 0
3 10 0
4 10 0
5 10 0
6 10 0
7 10 0
8 10 0
9 10 0
10 10 0
11 10 0
12 10 0
13 10 0
14 10 0
15 10 0
16 10 0
17 10 0
18 10 0
19 10 0
20 10 0
21 10 0
22 10 0
23 10 0
24 10 0
25 10 0
26 10 0
27 10 0
28 10 0
29 10 0
30 10 0
31 10 0
32 10 0
33 10 0
34 10 0
35 10 0
36 10 0
37 10 0
38 10 0
39 10 0
40 10 0
41 10 0
42 10 0
43 10 0
44 10 0
45 10 0
46 10 0
47 10 0
48 10 0
49 10 0
50 10 0
0.5 10.5 0
1.5 10.5 0
2.5 10.5 0
3.5 10.5 0
4.5 10.5 0
5.5 10.5 0
6.5 10.5 0
7.5 10.5 0
8.5 10.5 0
9.5 10.5 0
10.5 10.5 0
11.5 10.5 0
12.5 10.5 0
13.5 10.5 0
14.5 10.5 0
15.5 10.5 0
16.5 10.5 0
17.5 10.5 0
18.5 10.5 0
19.5 10.5 0
20.5 10.5 0
21.5 10.5 0
22.5 10.5 0
23.5 10.5 0
24.5 10.5 0
25.5 10.5 0
26.5 10.5 0
27.5 10.5 0
28.5 10.5 0
29.5 10.5 0
30.5 10.5 0
31.5 10.5 0
32.5 10.5 0
33.5 10.5 0
34.5 10.5 0
35.5 10.5 0
36.5 10.5 0
37.5 10.5 0
38.5 10.5 0
39.5 10.5 0
40.5 10.5 0
41.5 10.5 0
42.5 10.5 0
43.5 10.5 0
44.5 10.5 0
45.5 10.5 0
46.5 10.5 0
47.5 10.5 0
48.5 10.5 0
49.5 10.5 0
0 11 0
1 11 0
2 11 0
3 11 0
[...]
POINT_DATA 5101
VECTORS velocity float
0.434335 0.434335 0.789117
0.427668 0.331136 0.8411
0.339936 0.193793 0.920265
0.318291 0.0639035 0.945837
0.350745 -0.0969356 0.93144
0.402067 -0.285906 0.869828
0.44037 -0.474385 0.762255
0.450301 -0.635606 0.627084
0.432503 -0.759673 0.485632
0.39414 -0.849256 0.35131
0.342198 -0.91111 0.229736
0.281429 -0.951759 0.12228
0.214335 -0.976342 0.0285894
0.141644 -0.988545 -0.0521134
0.0629012 -0.990736 -0.120353
-0.0228089 -0.984131 -0.17597
-0.11597 -0.969049 -0.217934
-0.215733 -0.945337 -0.244535
-0.319356 -0.91295 -0.254034
-0.422423 -0.872489 -0.245605
-0.519866 -0.825411 -0.220082
-0.607343 -0.773766 -0.180058
-0.682197 -0.71964 -0.129327
-0.743675 -0.664648 -0.0720447
-0.792527 -0.609718 -0.0120521
-0.830408 -0.555131 0.0474586
-0.85935 -0.500703 0.103992
-0.881403 -0.445985 0.155646
-0.898425 -0.390437 0.200978
-0.911958 -0.333567 0.238884
-0.92317 -0.275027 0.268546
-0.932815 -0.214699 0.289414
-0.941235 -0.152745 0.301239
-0.94841 -0.0896264 0.304113
-0.954049 -0.0260871 0.298513
-0.95773 0.0369079 0.285291
-0.959054 0.0982706 0.265628
-0.957773 0.15691 0.240935
-0.953871 0.211853 0.212716
-0.94757 0.262359 0.182424
-0.939272 0.308013 0.151315
-0.929446 0.348794 0.120302
-0.918479 0.385132 0.0898308
-0.906517 0.417919 0.059753
-0.893317 0.448475 0.0292373
-0.878109 0.47845 -0.00327876
-0.859439 0.50966 -0.0401335
-0.834934 0.543801 -0.0846513
-0.80073 0.58195 -0.142006
-0.749491 0.623729 -0.221868
-0.665457 0.665457 -0.338132
0.34278 0.34278 0.874645
0.29381 0.191325 0.93652
0.316413 0.0554579 0.946999
0.387443 -0.100726 0.916374
0.470505 -0.280911 0.836489
0.530783 -0.462527 0.710168
0.551204 -0.620723 0.557564
0.533274 -0.744573 0.401535
0.486503 -0.835129 0.256662
0.420536 -0.897987 0.129496
0.34283 -0.939135 0.0222008
0.258708 -0.963764 -0.0650326
0.171768 -0.976118 -0.133002
0.0841514 -0.979483 -0.183115
-0.00324851 -0.976143 -0.217105
-0.0904972 -0.967357 -0.236709
-0.178151 -0.953438 -0.243348
-0.266644 -0.933954 -0.237973
-0.355676 -0.908071 -0.221139
-0.443823 -0.875008 -0.193346
-0.528626 -0.834494 -0.155482
-0.60716 -0.787047 -0.109149
-0.676866 -0.733922 -0.0566688
-0.736211 -0.676752 -0.000788479
-0.784911 -0.617097 0.0557311
-0.82374 -0.556108 0.110441
-0.854129 -0.494399 0.161348
-0.877762 -0.432116 0.206906
-0.89626 -0.369092 0.245947
-0.910985 -0.305036 0.277597
-0.922925 -0.239708 0.301248
-0.932655 -0.17306 0.316551
-0.940362 -0.10533 0.323459
-0.945925 -0.0370768 0.322261
-0.949055 0.0308436 0.313598
-0.949451 0.09736 0.298436
-0.946943 0.16131 0.27799
-0.941584 0.22158 0.253618
-0.933677 0.277243 0.226679
-0.923724 0.327672 0.198407
-0.91232 0.37263 0.169764
-0.900007 0.41233 0.141319
-0.887119 0.447465 0.113113
-0.87363 0.479187 0.0845578
-0.859028 0.509034 0.0543611
-0.842189 0.538792 0.0204957
-0.821193 0.570304 -0.0199117
-0.792913 0.605177 -0.0710599
-0.751832 0.644353 -0.139854
-0.687821 0.687821 -0.231957
0.331136 0.427668 0.8411
0.233732 0.233732 0.943789
0.269886 0.109527 0.956643
0.361345 -0.0332937 0.931838
0.471421 -0.200985 0.858701
0.561678 -0.378152 0.73588
0.608399 -0.541212 0.580466
0.608644 -0.675561 0.416136
0.57124 -0.778448 0.2602
0.507128 -0.853249 0.121605
0.425582 -0.90491 0.00417795
0.333856 -0.93825 -0.0907013
0.237565 -0.957602 -0.162979
0.140896 -0.966702 -0.213623
0.0466143 -0.968538 -0.24446
-0.0439183 -0.965177 -0.257886
-0.130563 -0.957695 -0.256466
-0.214022 -0.946236 -0.242553
-0.295297 -0.930188 -0.218057
-0.375094 -0.908457 -0.184422
-0.453333 -0.879824 -0.142827
-0.528959 -0.843368 -0.0945141
-0.600149 -0.798833 -0.041069
-0.664872 -0.746797 0.0154841
-0.721532 -0.68854 0.0728321
-0.7694 -0.625674 0.128665
-0.808689 -0.559715 0.180946
-0.840319 -0.491788 0.228051
-0.865574 -0.422538 0.268781
-0.885757 -0.352212 0.302294
-0.901953 -0.280837 0.328041
-0.914892 -0.208422 0.345736
-0.924914 -0.135131 0.355351
-0.932027 -0.0613985 0.35715
-0.936038 0.0120304 0.351693
-0.936717 0.0841393 0.339827
-0.933955 0.153742 0.322633
-0.927881 0.219627 0.301331
-0.918899 0.28071 0.277178
-0.907644 0.336173 0.251336
-0.894882 0.385577 0.224757
-0.881355 0.42894 0.198052
-0.867615 0.466774 0.171364
-0.853875 0.500089 0.144254
-0.839869 0.530332 0.115616
-0.824748 0.55928 0.0836415
-0.806916 0.588889 0.0457861
-0.783712 0.621122 -0.00144344
-0.750623 0.657722 -0.0629785
-0.699899 0.699899 -0.142414
-0.623729 0.749491 -0.221868
0.191325 0.29381 0.93652
0.193981 0.193981 0.961635
0.287347 0.0748515 0.954897
0.415724 -0.0765263 0.906266
0.539118 -0.249633 0.804385
0.623235 -0.421681 0.658607
0.655412 -0.572529 0.492591
0.640997 -0.693977 0.327901
0.591481 -0.786619 0.177146
0.517697 -0.854317 0.0461763
0.428379 -0.901437 -0.0624772
0.330527 -0.932142 -0.147859
0.229758 -0.950294 -0.210124
0.130301 -0.959313 -0.250479
0.034874 -0.961939 -0.271031
-0.0553365 -0.960015 -0.274426
-0.140461 -0.954404 -0.263406
-0.221523 -0.945052 -0.240423
-0.29987 -0.931154 -0.20744
-0.376561 -0.911407 -0.165951
-0.451862 -0.884353 -0.117215
-0.525013 -0.848789 -0.0625912
-0.594382 -0.804174 -0.00381783
-0.657993 -0.75087 0.056916
-0.714186 -0.690082 0.117157
-0.762102 -0.623494 0.174516
-0.801802 -0.552811 0.226967
-0.834062 -0.479395 0.272987
-0.860007 -0.404131 0.311553
-0.880759 -0.327496 0.342067
-0.897182 -0.249747 0.364267
-0.90977 -0.171135 0.378194
-0.918661 -0.0920847 0.384164
-0.923749 -0.0132967 0.382769
-0.924859 0.0642375 0.374845
-0.921935 0.139308 0.361428
-0.915167 0.210619 0.343669
-0.905058 0.27695 0.32275
-0.892386 0.337317 0.299774
-0.878095 0.3911 0.275663
-0.86314 0.438141 0.251044
-0.848304 0.478793 0.226136
-0.834032 0.513942 0.200633
-0.82029 0.54496 0.173614
-0.806458 0.573613 0.143501
-0.791204 0.601928 0.108064
-0.772249 0.632052 0.0643649
-0.745818 0.666093 0.00868185
-0.705762 0.705762 -0.0616426
-0.644353 0.751832 -0.139854
0.193793 0.339936 0.920265
0.109527 0.269886 0.956643
0.188198 0.188198 0.963931
0.323922 0.064579 0.943877
0.476415 -0.0948828 0.874086
0.603292 -0.270652 0.750191
0.677615 -0.437771 0.590926
0.696588 -0.580417 0.421761
0.670635 -0.694528 0.260537
0.612136 -0.782172 0.116175
0.53144 -0.847064 -0.00738919
0.436827 -0.892999 -0.108326
0.335136 -0.923645 -0.185916
0.23194 -0.942535 -0.240483
0.131371 -0.952877 -0.273436
0.0359089 -0.957241 -0.287053
-0.0536032 -0.957308 -0.284057
-0.137674 -0.953771 -0.267147
-0.21767 -0.946398 -0.238642
-0.295196 -0.934196 -0.200342
-0.371464 -0.915652 -0.153613
-0.446774 -0.889076 -0.0996815
-0.520284 -0.853056 -0.0400088
-0.590211 -0.806909 0.0234311
-0.654417 -0.750979 0.0881378
-0.711134 -0.68657 0.151362
-0.75947 -0.615538 0.210519
-0.799502 -0.539771 0.263522
-0.832005 -0.460797 0.308922
-0.858042 -0.379654 0.345871
-0.878583 -0.296988 0.374019
-0.894283 -0.213269 0.393414
-0.905421 -0.129017 0.404435
-0.911991 -0.0449563 0.407738
-0.913879 0.0379089 0.404214
-0.911065 0.118334 0.394915
-0.903796 0.194945 0.380985
-0.892663 0.266406 0.363566
-0.878583 0.331584 0.34372
-0.862687 0.389703 0.322339
-0.846151 0.440451 0.300052
-0.830001 0.484043 0.277129
-0.814922 0.521253 0.253372
-0.801108 0.55338 0.228028
-0.788147 0.582176 0.199738
-0.774927 0.60971 0.166558
-0.75947 0.638226 0.125988
-0.738557 0.67 0.0750564
-0.707061 0.707061 0.0114071
-0.657722 0.750623 -0.0629785
-0.58195 0.80073 -0.142006
0.0554579 0.316413 0.946999
0.0748515 0.287347 0.954897
0.203462 0.203462 0.957709
0.373719 0.0726439 0.924693
0.541878 -0.0937715 0.83521
0.666333 -0.270682 0.694789
0.729629 -0.433843 0.528604
0.737078 -0.571519 0.360669
0.701909 -0.682203 0.204751
0.636411 -0.768434 0.0670092
0.5503 -0.833482 -0.0497685
0.451498 -0.880566 -0.144058
0.34676 -0.912932 -0.215205
0.241649 -0.93387 -0.263615
0.140181 -0.946456 -0.29081
0.0445729 -0.953165 -0.299149
-0.0446874 -0.955575 -0.29134
-0.128479 -0.95426 -0.269966
-0.208479 -0.948836 -0.237164
-0.286501 -0.938122 -0.194538
-0.36382 -0.920378 -0.143318
-0.440636 -0.89368 -0.0847135
-0.515872 -0.856424 -0.02034
-0.587445 -0.807868 0.0475172
-0.652979 -0.748444 0.115971
-0.710606 -0.679661 0.181935
-0.759467 -0.603607 0.242629
-0.799726 -0.522357 0.295943
-0.832196 -0.437579 0.34055
-0.857868 -0.350451 0.375829
-0.877538 -0.261806 0.401728
-0.891646 -0.172372 0.418634
-0.900306 -0.0829907 0.427272
-0.903475 0.0052705 0.428608
-0.901181 0.0911027 0.423761
-0.893719 0.173049 0.413908
-0.881766 0.249658 0.4002
-0.866371 0.319669 0.383683
-0.848856 0.382168 0.365228
-0.830625 0.436711 0.345464
-0.812957 0.483399 0.324695
-0.796793 0.522904 0.302809
-0.782561 0.556459 0.279198
-0.770057 0.585793 0.252702
-0.758363 0.612999 0.221625
-0.745738 0.640381 0.183813
-0.729376 0.670297 0.136791
-0.70493 0.70493 0.0784115
-0.666093 0.745818 0.00868185
-0.605177 0.792913 -0.0710599
0.0639035 0.318291 0.945837
-0.0332937 0.361345 0.931838
0.064579 0.323922 0.943877
0.235041 0.235041 0.943139
0.433093 0.0965632 0.896162
0.609427 -0.075558 0.789233
0.727368 -0.252922 0.63794
0.779696 -0.413545 0.470165
0.777581 -0.549055 0.306441
0.735292 -0.659363 0.156802
0.664425 -0.74692 0.025485
0.573996 -0.814404 -0.0852907
0.471637 -0.864455 -0.174001
0.364109 -0.899933 -0.239885
0.257034 -0.923942 -0.283311
0.154376 -0.939488 -0.305827
0.0581475 -0.949018 -0.309811
-0.0314732 -0.954067 -0.297934
-0.115699 -0.955126 -0.272668
-0.196504 -0.951681 -0.235988
-0.27589 -0.942358 -0.189332
-0.355165 -0.925177 -0.133814
-0.434368 -0.897959 -0.070669
-0.5121 -0.858924 -0.00171578
-0.585909 -0.807314 0.0703878
-0.653152 -0.743731 0.142327
-0.711882 -0.669955 0.210676
-0.761315 -0.588339 0.272503
-0.801709 -0.501154 0.325742
-0.833882 -0.410228 0.369262
-0.8587 -0.31692 0.402736
-0.876757 -0.222321 0.426464
-0.88831 -0.127495 0.441193
-0.893414 -0.0336575 0.447971
-0.89216 0.0577717 0.448009
-0.884901 0.145225 0.44256
-0.872399 0.227132 0.432817
-0.855841 0.302105 0.419843
-0.836737 0.369108 0.404512
-0.81673 0.427588 0.387454
-0.797362 0.477547 0.369003
-0.779842 0.51958 0.349118
-0.764849 0.554861 0.327313
-0.752396 0.58509 0.302604
-0.741747 0.612373 0.273514
-0.731359 0.639056 0.238162
-0.718736 0.667546 0.194424
-0.700108 0.700108 0.140346
-0.67 0.738557 0.0750564
-0.621122 0.783712 -0.00144344
-0.543801 0.834934 -0.0846513
-0.100726 0.387443 0.916374
-0.0765263 0.415724 0.906266
0.0726439 0.373719 0.924693
0.279703 0.279703 0.91844
0.49791 0.133832 0.85684
0.675422 -0.0427912 0.736189
0.78433 -0.220362 0.579886
0.826779 -0.379842 0.414917
0.817356 -0.515398 0.257474
0.770053 -0.627611 0.114557
0.695384 -0.718557 -0.0107788
0.601623 -0.790248 -0.116441
0.496171 -0.844724 -0.200637
0.385896 -0.884463 -0.262316
0.276602 -0.912402 -0.301686
0.172321 -0.931528 -0.320252
0.0749587 -0.944311 -0.320404
-0.0155539 -0.952287 -0.304806
-0.10075 -0.9559 -0.275871
-0.182913 -0.954517 -0.235459
-0.264261 -0.946568 -0.184864
-0.346135 -0.929806 -0.125105
-0.428376 -0.901772 -0.0574556
-0.509192 -0.860504 0.0160154
-0.585701 -0.805263 0.0922247
-0.65497 -0.736881 0.167396
-0.714985 -0.657464 0.237775
-0.765031 -0.569671 0.300337
-0.805421 -0.476013 0.353141
-0.836908 -0.378541 0.395338
-0.860184 -0.27889 0.426971
-0.875659 -0.178503 0.44873
-0.883516 -0.0788484 0.461717
-0.883936 0.0184656 0.467244
-0.877349 0.111715 0.466667
-0.864618 0.199186 0.46126
-0.847076 0.279355 0.452131
-0.826435 0.351068 0.440178
-0.804583 0.413676 0.42605
-0.783338 0.467109 0.410111
-0.764194 0.511902 0.392383
-0.748097 0.549185 0.372487
-0.735289 0.580633 0.349594
-0.725221 0.608356 0.322425
-0.716522 0.634733 0.289326
-0.706932 0.662213 0.248438
-0.693109 0.693109 0.197986
-0.670297 0.729376 0.136791
-0.632052 0.772249 0.0643649
-0.570304 0.821193 -0.0199117
-0.0969356 0.350745 0.93144
-0.200985 0.471421 0.858701
-0.0948828 0.476415 0.874086
0.0965632 0.433093 0.896162
0.333734 0.333734 0.881614
0.563313 0.181043 0.806165
0.73606 0.00120296 0.676915
0.835034 -0.176298 0.521188
0.869509 -0.335551 0.362435
0.855269 -0.472565 0.212594
0.805121 -0.588164 0.0764461
0.728254 -0.683922 -0.0435457
0.632156 -0.761142 -0.145059
0.524038 -0.821221 -0.225786
0.410997 -0.866205 -0.2842
0.299192 -0.898854 -0.320229
0.192887 -0.922149 -0.335315
0.0939925 -0.93862 -0.331902
0.00222895 -0.949841 -0.312725
-0.0842807 -0.956232 -0.280207
-0.16819 -0.957055 -0.236129
-0.251988 -0.950531 -0.181639
-0.337059 -0.934105 -0.117642
-0.422998 -0.90499 -0.0454556
-0.507531 -0.861018 0.0325541
-0.58726 -0.801499 0.112806
-0.658917 -0.72756 0.191013
-0.720397 -0.641716 0.263111
-0.771018 -0.547011 0.326053
-0.811075 -0.446288 0.378131
-0.8412 -0.341935 0.418883
-0.86192 -0.23597 0.44879
-0.873567 -0.13027 0.468946
-0.876447 -0.0267354 0.480755
-0.871102 0.0726827 0.485694
-0.858518 0.16608 0.485143
-0.8402 0.251772 0.480285
-0.81808 0.328481 0.472065
-0.794312 0.395467 0.461166
-0.771009 0.452604 0.447989
-0.749966 0.500393 0.432617
-0.732414 0.539939 0.414772
-0.718841 0.572901 0.393767
-0.708895 0.601393 0.368504
-0.701366 0.627821 0.337531
-0.694177 0.654672 0.299204
-0.684302 0.684302 0.251916
-0.667546 0.718736 0.194424
-0.638226 0.75947 0.125988
-0.588889 0.806916 0.0457861
-0.50966 0.859439 -0.0401335
-0.280911 0.470505 0.836489
-0.249633 0.539118 0.804385
-0.0937715 0.541878 0.83521
0.133832 0.49791 0.85684
0.392536 0.392536 0.831764
0.624468 0.234001 0.745173
0.788269 0.0525555 0.613083
0.877826 -0.124178 0.462603
0.906712 -0.283343 0.312395
0.890216 -0.422306 0.170803
0.839411 -0.541939 0.0411333
0.762002 -0.643298 -0.0743073
0.664616 -0.726955 -0.17269
0.554299 -0.793583 -0.250955
0.43851 -0.844699 -0.306908
0.323972 -0.882816 -0.340114
0.215371 -0.910895 -0.351974
0.114718 -0.931535 -0.345084
0.0215222 -0.946374 -0.322357
-0.0665118 -0.955832 -0.286289
-0.152507 -0.959073 -0.238581
-0.239294 -0.954081 -0.180191
-0.328302 -0.937926 -0.11186
-0.418783 -0.907413 -0.034963
-0.507834 -0.86013 0.047755
-0.591408 -0.79548 0.132096
-0.665822 -0.715003 0.213196
-0.728834 -0.621768 0.286715
-0.779738 -0.519343 0.349702
-0.818767 -0.411043 0.40083
-0.846436 -0.299709 0.440137
-0.863216 -0.187834 0.468591
-0.869568 -0.0777597 0.487652
-0.866186 0.0282353 0.498923
-0.85422 0.127988 0.503911
-0.835379 0.219612 0.503897
-0.811851 0.301677 0.499888
-0.78609 0.37335 0.492617
-0.760533 0.434458 0.482531
-0.737298 0.485489 0.46978
-0.717923 0.527548 0.454179
-0.703163 0.562299 0.43518
-0.692877 0.591859 0.411855
-0.686011 0.618661 0.382945
-0.68064 0.645231 0.346996
-0.673965 0.673965 0.302561
-0.662213 0.706932 0.248438
-0.640381 0.745738 0.183813
-0.601928 0.791204 0.108064
-0.538792 0.842189 0.0204957
-0.285906 0.402067 0.869828
-0.378152 0.561678 0.73588
-0.270652 0.603292 0.750191
-0.075558 0.609427 0.789233
0.181043 0.563313 0.806165
0.45119 0.45119 0.769971
0.677613 0.28844 0.676493
0.8303 0.107455 0.54686
0.911882 -0.0672245 0.404911
0.937632 -0.225589 0.26449
0.921294 -0.366067 0.131199
0.871938 -0.489559 0.00743179
0.795662 -0.596681 -0.104374
0.69812 -0.687285 -0.200668
0.586165 -0.761218 -0.277411
0.467757 -0.81931 -0.331563
0.35041 -0.863698 -0.362269
0.239415 -0.897252 -0.370971
0.136955 -0.922627 -0.36056
0.0422739 -0.94154 -0.334238
-0.0474669 -0.954437 -0.294612
-0.135989 -0.960383 -0.243252
-0.226533 -0.957069 -0.180833
-0.32052 -0.941079 -0.107879
-0.416684 -0.908683 -0.0258639
-0.511251 -0.857198 0.0619184
-0.599326 -0.786235 0.150475
-0.676711 -0.697972 0.234301
-0.740989 -0.596262 0.308878
-0.791421 -0.48539 0.37155
-0.828205 -0.369278 0.421557
-0.851858 -0.251308 0.459546
-0.863009 -0.134472 0.486963
-0.862543 -0.021515 0.505527
-0.85182 0.0850481 0.516885
-0.8328 0.183061 0.52243
-0.807975 0.270903 0.523248
-0.780146 0.347625 0.520124
-0.752117 0.413009 0.51356
-0.726372 0.467546 0.503771
-0.704782 0.512368 0.490674
-0.688392 0.549163 0.473853
-0.677288 0.58007 0.452549
-0.67058 0.607543 0.425692
-0.66647 0.634148 0.392011
-0.662324 0.662324 0.350219
-0.654672 0.694177 0.299204
-0.639056 0.731359 0.238162
-0.60971 0.774927 0.166558
-0.55928 0.824748 0.0836415
-0.47845 0.878109 -0.00327876
-0.462527 0.530783 0.710168
-0.421681 0.623235 0.658607
-0.270682 0.666333 0.694789
-0.0427912 0.675422 0.736189
0.234001 0.624468 0.745173
0.505482 0.505482 0.699269
0.720738 0.340845 0.603623
0.861821 0.162741 0.480396
0.937183 -0.00809219 0.348745
0.961947 -0.164202 0.218395
0.947823 -0.304939 0.0929665
0.901819 -0.431348 -0.0256953
0.828319 -0.543783 -0.134862
0.73184 -0.641456 -0.230097
0.618961 -0.72329 -0.306169
0.498243 -0.789214 -0.359019
0.378206 -0.84078 -0.387362
0.264917 -0.880634 -0.392815
0.160747 -0.911439 -0.378734
0.0645645 -0.935003 -0.348714
-0.0271827 -0.951818 -0.305456
-0.118957 -0.960835 -0.250291
-0.214438 -0.959349 -0.183484
-0.314886 -0.94327 -0.105303
-0.4182 -0.908187 -0.0174752
-0.519373 -0.851172 0.0758787
-0.612416 -0.772316 0.168741
-0.692554 -0.674803 0.25497
-0.75724 -0.563585 0.33009
-0.805795 -0.443849 0.392036
-0.838536 -0.320205 0.440824
-0.856214 -0.196578 0.47776
-0.859934 -0.0763722 0.504659
-0.851314 0.0374214 0.52332
-0.832615 0.142292 0.535261
-0.80669 0.236366 0.541647
-0.77675 0.318542 0.543314
-0.746028 0.388541 0.540813
-0.717425 0.446866 0.534426
-0.693195 0.4947 0.524169
-0.674699 0.533784 0.509762
-0.662274 0.566295 0.490616
-0.655206 0.594716 0.465852
-0.651812 0.621648 0.43439
-0.649574 0.649574 0.395103
-0.645231 0.68064 0.346996
-0.634733 0.716522 0.289326
-0.612999 0.758363 0.221625
-0.573613 0.806458 0.143501
-0.509034 0.859028 0.0543611
-0.474385 0.44037 0.762255
-0.541212 0.608399 0.580466
-0.437771 0.677615 0.590926
-0.252922 0.727368 0.63794
0.00120296 0.73606 0.676915
0.28844 0.677613 0.676493
0.552705 0.552705 0.623726
0.753571 0.388948 0.529953
0.883566 0.216226 0.415401
0.954273 0.0513162 0.294498
0.979639 -0.100564 0.173763
0.969277 -0.239653 0.0554025
0.928201 -0.367357 -0.0590931
0.859019 -0.484065 -0.166636
0.764911 -0.58854 -0.261785
0.652028 -0.678729 -0.337915
0.529565 -0.753403 -0.389799
0.407213 -0.81322 -0.415753
0.291925 -0.86039 -0.417743
0.186223 -0.897499 -0.39977
0.0884278 -0.926449 -0.365887
-0.00592735 -0.9478 -0.318809
-0.102168 -0.960335 -0.259456
-0.204341 -0.960766 -0.187544
-0.313231 -0.94406 -0.103137
-0.425386 -0.904972 -0.0085259
-0.534082 -0.840529 0.0909216
-0.632024 -0.751811 0.18795
-0.713929 -0.643551 0.275949
-0.77734 -0.52212 0.350904
-0.821885 -0.393701 0.41171
-0.848279 -0.26354 0.459314
-0.857848 -0.135973 0.495589
-0.852508 -0.0146266 0.52251
-0.834868 0.0975275 0.541741
-0.808198 0.198285 0.554526
-0.776186 0.286337 0.561736
-0.742571 0.361312 0.563952
-0.71075 0.423721 0.561511
-0.683416 0.474816 0.55452
-0.662299 0.516419 0.542837
-0.648014 0.550773 0.526048
-0.640041 0.5804 0.503471
-0.636813 0.607931 0.474225
-0.635892 0.635892 0.437358
-0.634148 0.66647 0.392011
-0.627821 0.701366 0.337531
-0.612373 0.741747 0.273514
-0.582176 0.788147 0.199738
-0.530332 0.839869 0.115616
-0.448475 0.893317 0.0292373
-0.620723 0.551204 0.557564
-0.572529 0.655412 0.492591
-0.433843 0.729629 0.528604
-0.220362 0.78433 0.579886
0.0525555 0.788269 0.613083
0.340845 0.720738 0.603623
0.59183 0.59183 0.547243
0.777038 0.431728 0.458064
0.896821 0.266703 0.352962
0.96396 0.109839 0.242315
0.990842 -0.035555 0.130259
0.985171 -0.170634 0.017962
0.950161 -0.297453 -0.0933535
0.886649 -0.416847 -0.200228
0.796297 -0.52746 -0.296138
0.684598 -0.626314 -0.372902
0.561301 -0.710742 -0.424012
0.437318 -0.780098 -0.447438
0.320513 -0.835843 -0.445688
0.213438 -0.88036 -0.423569
0.113653 -0.915641 -0.385595
0.015576 -0.942327 -0.334332
-0.087023 -0.958901 -0.270066
-0.198327 -0.961174 -0.19186
-0.318073 -0.942799 -0.0997964
-0.4407 -0.89765 0.00272001
-0.557226 -0.823236 0.108537
-0.659014 -0.722474 0.20912
-0.740636 -0.602271 0.297872
-0.800163 -0.470606 0.371845
-0.83793 -0.334539 0.431228
-0.855432 -0.199727 0.477855
-0.854918 -0.0706632 0.513927
-0.83939 0.0491001 0.541308
-0.81257 0.156943 0.561336
-0.778683 0.251278 0.574902
-0.742056 0.331593 0.58258
-0.70667 0.398385 0.584728
-0.675749 0.452982 0.581525
-0.651455 0.49732 0.572957
-0.634729 0.533734 0.558791
-0.625269 0.564801 0.538552
-0.621633 0.593185 0.51157
-0.621446 0.621446 0.477084