# vtk DataFile Version 2.0
tmp/0.000.00-10.000.000.001.0016.vtk
ASCII
DATASET UNSTRUCTURED_GRID
POINTS 5101 float
0 0 0
1 0 0
2 0 0
3 0 0
4 0 0
5 0 0
6 0 0
7 0 0
8 0 0
9 0 0
10 0 0
11 0 0
12 0 0
13 0 0
14 0 0
15 0 0
16 0 0
17 0 0
18 0 0
19 0 0
20 0 0
21 0 0
22 0 0
23 0 0
24 0 0
25 0 0
26 0 0
27 0 0
28 0 0
29 0 0
30 0 0
31 0 0
32 0 0
33 0 0
34 0 0
35 0 0
36 0 0
37 0 0
38 0 0
39 0 0
40 0 0
41 0 0
42 0 0
43 0 0
44 0 0
45 0 0
46 0 0
47 0 0
48 0 0
49 0 0
50 0 0
0.5 0.5 0
1.5 0.5 0
2.5 0.5 0
3.5 0.5 0
4.5 0.5 0
5.5 0.5 0
6.5 0.5 0
7.5 0.5 0
8.5 0.5 0
9.5 0.5 0
10.5 0.5 0
11.5 0.5 0
12.5 0.5 0
13.5 0.5 0
14.5 0.5 0
15.5 0.5 0
16.5 0.5 0
17.5 0.5 0
18.5 0.5 0
19.5 0.5 0
20.5 0.5 0
21.5 0.5 0
22.5 0.5 0
23.5 0.5 0
24.5 0.5 0
25.5 0.5 0
26.5 0.5 0
27.5 0.5 0
28.5 0.5 0
29.5 0.5 0
30.5 0.5 0
31.5 0.5 0
32.5 0.5 0
33.5 0.5 0
34.5 0.5 0
35.5 0.5 0
36.5 0.5 0
37.5 0.5 0
38.5 0.5 0
39.5 0.5 0
40.5 0.5 0
41.5 0.5 0
42.5 0.5 0
43.5 0.5 0
44.5 0.5 0
45.5 0.5 0
46.5 0.5 0
47.5 0.5 0
48.5 0.5 0
49.5 0.5 0
0 1 0
1 1 0
2 1 0
3 1 0
4 1 0
5 1 0
6 1 0
7 1 0
8 1 0
9 1 0
10 1 0
11 1 0
12 1 0
13 1 0
14 1 0
15 1 0
16 1 0
17 1 0
18 1 0
19 1 0
20 1 0
21 1 0
22 1 0
23 1 0
24 1 0
25 1 0
26 1 0
27 1 0
28 1 0
29 1 0
30 1 0
31 1 0
32 1 0
33 1 0
34 1 0
35 1 0
36 1 0
37 1 0
38 1 0
39 1 0
40 1 0
41 1 0
42 1 0
43 1 0
44 1 0
45 1 0
46 1 0
47 1 0
48 1 0
49 1 0
50 1 0
0.5 1.5 0
1.5 1.5 0
2.5 1.5 0
3.5 1.5 0
4.5 1.5 0
5.5 1.5 0
6.5 1.5 0
7.5 1.5 0
8.5 1.5 0
9.5 1.5 0
10.5 1.5 0
11.5 1.5 0
12.5 1.5 0
13.5 1.5 0
14.5 1.5 0
15.5 1.5 0
16.5 1.5 0
17.5 1.5 0
18.5 1.5 0
19.5 1.5 0
20.5 1.5 0
21.5 1.5 0
22.5 1.5 0
23.5 1.5 0
24.5 1.5 0
25.5 1.5 0
26.5 1.5 0
27.5 1.5 0
28.5 1.5 0
29.5 1.5 0
30.5 1.5 0
31.5 1.5 0
32.5 1.5 0
33.5 1.5 0
34.5 1.5 0
35.5 1.5 0
36.5 1.5 0
37.5 1.5 0
38.5 1.5 0
39.5 1.5 0
40.5 1.5 0
41.5 1.5 0
42.5 1.5 0
43.5 1.5 0
44.5 1.5 0
45.5 1.5 0
46.5 1.5 0
47.5 1.5 0
48.5 1.5 0
49.5 1.5 0
0 2 0
1 2 0
2 2 0
3 2 0
4 2 0
5 2 0
6 2 0
7 2 0
8 2 0
9 2 0
10 2 0
11 2 0
12 2 0
13 2 0
14 2 0
15 2 0
16 2 0
17 2 0
18 2 0
19 2 0
20 2 0
21 2 0
22 2 0
23 2 0
24 2 0
25 2 0
26 2 0
27 2 0
28 2 0
29 2 0
30 2 0
31 2 0
32 2 0
33 2 0
34 2 0
35 2 0
36 2 0
37 2 0
38 2 0
39 2 0
40 2 0
41 2 0
42 2 0
43 2 0
44 2 0
45 2 0
46 2 0
47 2 0
48 2 0
49 2 0
50 2 0
0.5 2.5 0
1.5 2.5 0
2.5 2.5 0
3.5 2.5 0
4.5 2.5 0
5.5 2.5 0
6.5 2.5 0
7.5 2.5 0
8.5 2.5 0
9.5 2.5 0
10.5 2.5 0
11.5 2.5 0
12.5 2.5 0
13.5 2.5 0
14.5 2.5 0
15.5 2.5 0
16.5 2.5 0
17.5 2.5 0
18.5 2.5 0
19.5 2.5 0
20.5 2.5 0
21.5 2.5 0
22.5 2.5 0
23.5 2.5 0
24.5 2.5 0
25.5 2.5 0
26.5 2.5 0
27.5 2.5 0
28.5 2.5 0
29.5 2.5 0
30.5 2.5 0
31.5 2.5 0
32.5 2.5 0
33.5 2.5 0
34.5 2.5 0
35.5 2.5 0
36.5 2.5 0
37.5 2.5 0
38.5 2.5 0
39.5 2.5 0
40.5 2.5 0
41.5 2.5 0
42.5 2.5 0
43.5 2.5 0
44.5 2.5 0
45.5 2.5 0
46.5 2.5 0
47.5 2.5 0
48.5 2.5 0
49.5 2.5 0
0 3 0
1 3 0
2 3 0
3 3 0
4 3 0
5 3 0
6 3 0
7 3 0
8 3 0
9 3 0
10 3 0
11 3 0
12 3 0
13 3 0
14 3 0
15 3 0
16 3 0
17 3 0
18 3 0
19 3 0
20 3 0
21 3 0
22 3 0
23 3 0
24 3 0
25 3 0
26 3 0
27 3 0
28 3 0
29 3 0
30 3 0
31 3 0
32 3 0
33 3 0
34 3 0
35 3 0
36 3 0
37 3 0
38 3 0
39 3 0
40 3 0
41 3 0
42 3 0
43 3 0
44 3 0
45 3 0
46 3 0
47 3 0
48 3 0
49 3 0
50 3 0
0.5 3.5 0
1.5 3.5 0
2.5 3.5 0
3.5 3.5 0
4.5 3.5 0
5.5 3.5 0
6.5 3.5 0
7.5 3.5 0
8.5 3.5 0
9.5 3.5 0
10.5 3.5 0
11.5 3.5 0
12.5 3.5 0
13.5 3.5 0
14.5 3.5 0
15.5 3.5 0
16.5 3.5 0
17.5 3.5 0
18.5 3.5 0
19.5 3.5 0
20.5 3.5 0
21.5 3.5 0
22.5 3.5 0
23.5 3.5 0
24.5 3.5 0
25.5 3.5 0
26.5 3.5 0
27.5 3.5 0
28.5 3.5 0
29.5 3.5 0
30.5 3.5 0
31.5 3.5 0
32.5 3.5 0
33.5 3.5 0
34.5 3.5 0
35.5 3.5 0
36.5 3.5 0
37.5 3.5 0
38.5 3.5 0
39.5 3.5 0
40.5 3.5 0
41.5 3.5 0
42.5 3.5 0
43.5 3.5 0
44.5 3.5 0
45.5 3.5 0
46.5 3.5 0
47.5 3.5 0
48.5 3.5 0
49.5 3.5 0
0 4 0
1 4 0
2 4 0
3 4 0
4 4 0
5 4 0
6 4 0
7 4 0
8 4 0
9 4 0
10 4 0
11 4 0
12 4 0
13 4 0
14 4 0
15 4 0
16 4 0
17 4 0
18 4 0
19 4 0
20 4 0
21 4 0
22 4 0
23 4 0
24 4 0
25 4 0
26 4 0
27 4 0
28 4 0
29 4 0
30 4 0
31 4 0
32 4 0
33 4 0
34 4 0
35 4 0
36 4 0
37 4 0
38 4 0
39 4 0
40 4 0
41 4 0
42 4 0
43 4 0
44 4 0
45 4 0
46 4 0
47 4 0
48 4 0
49 4 0
50 4 0
0.5 4.5 0
1.5 4.5 0
2.5 4.5 0
3.5 4.5 0
4.5 4.5 0
5.5 4.5 0
6.5 4.5 0
7.5 4.5 0
8.5 4.5 0
9.5 4.5 0
10.5 4.5 0
11.5 4.5 0
12.5 4.5 0
13.5 4.5 0
14.5 4.5 0
15.5 4.5 0
16.5 4.5 0
17.5 4.5 0
18.5 4.5 0
19.5 4.5 0
20.5 4.5 0
21.5 4.5 0
22.5 4.5 0
23.5 4.5 0
24.5 4.5 0
25.5 4.5 0
26.5 4.5 0
27.5 4.5 0
28.5 4.5 0
29.5 4.5 0
30.5 4.5 0
31.5 4.5 0
32.5 4.5 0
33.5 4.5 0
34.5 4.5 0
35.5 4.5 0
36.5 4.5 0
37.5 4.5 0
38.5 4.5 0
39.5 4.5 0
40.5 4.5 0
41.5 4.5 0
42.5 4.5 0
43.5 4.5 0
44.5 4.5 0
45.5 4.5 0
46.5 4.5 0
47.5 4.5 0
48.5 4.5 0
49.5 4.5 0
0 5 0
1 5 0
2 5 0
3 5 0
4 5 0
5 5 0
6 5 0
7 5 0
8 5 0
9 5 0
10 5 0
11 5 0
12 5 0
13 5 0
14 5 0
15 5 0
16 5 0
17 5 0
18 5 0
19 5 0
20 5 0
21 5 0
22 5 0
23 5 0
24 5 0
25 5 0
26 5 0
27 5 0
28 5 0
29 5 0
30 5 0
31 5 0
32 5 0
33 5 0
34 5 0
35 5 0
36 5 0
37 5 0
38 5 0
39 5 0
40 5 0
41 5 0
42 5 0
43 5 0
44 5 0
45 5 0
46 5 0
47 5 0
48 5 0
49 5 0
50 5 0
0.5 5.5 0
1.5 5.5 0
2.5 5.5 0
3.5 5.5 0
4.5 5.5 0
5.5 5.5 0
6.5 5.5 0
7.5 5.5 0
8.5 5.5 0
9.5 5.5 0
10.5 5.5 0
11.5 5.5 0
12.5 5.5 0
13.5 5.5 0
14.5 5.5 0
15.5 5.5 0
16.5 5.5 0
17.5 5.5 0
18.5 5.5 0
19.5 5.5 0
20.5 5.5 0
21.5 5.5 0
22.5 5.5 0
23.5 5.5 0
24.5 5.5 0
25.5 5.5 0
26.5 5.5 0
27.5 5.5 0
28.5 5.5 0
29.5 5.5 0
30.5 5.5 0
31.5 5.5 0
32.5 5.5 0
33.5 5.5 0
34.5 5.5 0
35.5 5.5 0
36.5 5.5 0
37.5 5.5 0
38.5 5.5 0
39.5 5.5 0
40.5 5.5 0
41.5 5.5 0
42.5 5.5 0
43.5 5.5 0
44.5 5.5 0
45.5 5.5 0
46.5 5.5 0
47.5 5.5 0
48.5 5.5 0
49.5 5.5 0
0 6 0
1 6 0
2 6 0
3 6 0
4 6 0
5 6 0
6 6 0
7 6 0
8 6 0
9 6 0
10 6 0
11 6 0
12 6 0
13 6 0
14 6 0
15 6 0
16 6 0
17 6 0
18 6 0
19 6 0
20 6 0
21 6 0
22 6 0
23 6 0
24 6 0
25 6 0
26 6 0
27 6 0
28 6 0
29 6 0
30 6 0
31 6 0
32 6 0
33 6 0
34 6 0
35 6 0
36 6 0
37 6 0
38 6 0
39 6 0
40 6 0
41 6 0
42 6 0
43 6 0
44 6 0
45 6 0
46 6 0
47 6 0
48 6 0
49 6 0
50 6 0
0.5 6.5 0
1.5 6.5 0
2.5 6.5 0
3.5 6.5 0
4.5 6.5 0
5.5 6.5 0
6.5 6.5 0
7.5 6.5 0
8.5 6.5 0
9.5 6.5 0
10.5 6.5 0
11.5 6.5 0
12.5 6.5 0
13.5 6.5 0
14.5 6.5 0
15.5 6.5 0
16.5 6.5 0
17.5 6.5 0
18.5 6.5 0
19.5 6.5 0
20.5 6.5 0
21.5 6.5 0
22.5 6.5 0
23.5 6.5 0
24.5 6.5 0
25.5 6.5 0
26.5 6.5 0
27.5 6.5 0
28.5 6.5 0
29.5 6.5 0
30.5 6.5 0
31.5 6.5 0
32.5 6.5 0
33.5 6.5 0
34.5 6.5 0
35.5 6.5 0
36.5 6.5 0
37.5 6.5 0
38.5 6.5 0
39.5 6.5 0
40.5 6.5 0
41.5 6.5 0
42.5 6.5 0
43.5 6.5 0
44.5 6.5 0
45.5 6.5 0
46.5 6.5 0
47.5 6.5 0
48.5 6.5 0
49.5 6.5 0
0 7 0
1 7 0
2 7 0
3 7 0
4 7 0
5 7 0
6 7 0
7 7 0
8 7 0
9 7 0
10 7 0
11 7 0
12 7 0
13 7 0
14 7 0
15 7 0
16 7 0
17 7 0
18 7 0
19 7 0
20 7 0
21 7 0
22 7 0
23 7 0
24 7 0
25 7 0
26 7 0
27 7 0
28 7 0
29 7 0
30 7 0
31 7 0
32 7 0
33 7 0
34 7 0
35 7 0
36 7 0
37 7 0
38 7 0
39 7 0
40 7 0
41 7 0
42 7 0
43 7 0
44 7 0
45 7 0
46 7 0
47 7 0
48 7 0
49 7 0
50 7 0
0.5 7.5 0
1.5 7.5 0
2.5 7.5 0
3.5 7.5 0
4.5 7.5 0
5.5 7.5 0
6.5 7.5 0
7.5 7.5 0
8.5 7.5 0
9.5 7.5 0
10.5 7.5 0
11.5 7.5 0
12.5 7.5 0
13.5 7.5 0
14.5 7.5 0
15.5 7.5 0
16.5 7.5 0
17.5 7.5 0
18.5 7.5 0
19.5 7.5 0
20.5 7.5 0
21.5 7.5 0
22.5 7.5 0
23.5 7.5 0
24.5 7.5 0
25.5 7.5 0
26.5 7.5 0
27.5 7.5 0
28.5 7.5 0
29.5 7.5 0
30.5 7.5 0
31.5 7.5 0
32.5 7.5 0
33.5 7.5 0
34.5 7.5 0
35.5 7.5 0
36.5 7.5 0
37.5 7.5 0
38.5 7.5 0
39.5 7.5 0
40.5 7.5 0
41.5 7.5 0
42.5 7.5 0
43.5 7.5 0
44.5 7.5 0
45.5 7.5 0
46.5 7.5 0
47.5 7.5 0
48.5 7.5 0
49.5 7.5 0
0 8 0
1 8 0
2 8 0
3 8 0
4 8 0
5 8 0
6 8 0
7 8 0
8 8 0
9 8 0
10 8 0
11 8 0
12 8 0
13 8 0
14 8 0
15 8 0
16 8 0
17 8 0
18 8 0
19 8 0
20 8 0
21 8 0
22 8 0
23 8 0
24 8 0
25 8 0
26 8 0
27 8 0
28 8 0
29 8 0
30 8 0
31 8 0
32 8 0
33 8 0
34 8 0
35 8 0
36 8 0
37 8 0
38 8 0
39 8 0
40 8 0
41 8 0
42 8 0
43 8 0
44 8 0
45 8 0
46 8 0
47 8 0
48 8 0
49 8 0
50 8 0
0.5 8.5 0
1.5 8.5 0
2.5 8.5 0
3.5 8.5 0
4.5 8.5 0
5.5 8.5 0
6.5 8.5 0
7.5 8.5 0
8.5 8.5 0
9.5 8.5 0
10.5 8.5 0
11.5 8.5 0
12.5 8.5 0
13.5 8.5 0
14.5 8.5 0
15.5 8.5 0
16.5 8.5 0
17.5 8.5 0
18.5 8.5 0
19.5 8.5 0
20.5 8.5 0
21.5 8.5 0
22.5 8.5 0
23.5 8.5 0
24.5 8.5 0
25.5 8.5 0
26.5 8.5 0
27.5 8.5 0
28.5 8.5 0
29.5 8.5 0
30.5 8.5 0
31.5 8.5 0
32.5 8.5 0
33.5 8.5 0
34.5 8.5 0
35.5 8.5 0
36.5 8.5 0
37.5 8.5 0
38.5 8.5 0
39.5 8.5 0
40.5 8.5 0
41.5 8.5 0
42.5 8.5 0
43.5 8.5 0
44.5 8.5 0
45.5 8.5 0
46.5 8.5 0
47.5 8.5 0
48.5 8.5 0
49.5 8.5 0
0 9 0
1 9 0
2 9 0
3 9 0
4 9 0
5 9 0
6 9 0
7 9 0
8 9 0
9 9 0
10 9 0
11 9 0
12 9 0
13 9 0
14 9 0
15 9 0
16 9 0
17 9 0
18 9 0
19 9 0
20 9 0
21 9 0
22 9 0
23 9 0
24 9 0
25 9 0
26 9 0
27 9 0
28 9 0
29 9 0
30 9 0
31 9 0
32 9 0
33 9 0
34 9 0
35 9 0
36 9 0
37 9 0
38 9 0
39 9 0
40 9 0
41 9 0
42 9 0
43 9 0
44 9 0
45 9 0
46 9 0
47 9 0
48 9 0
49 9 0
50 9 0
0.5 9.5 0
1.5 9.5 0
2.5 9.5 0
3.5 9.5 0
4.5 9.5 0
5.5 9.5 0
6.5 9.5 0
7.5 9.5 0
8.5 9.5 0
9.5 9.5 0
10.5 9.5 0
11.5 9.5 0
12.5 9.5 0
13.5 9.5 0
14.5 9.5 0
15.5 9.5 0
16.5 9.5 0
17.5 9.5 0
18.5 9.5 0
19.5 9.5 0
20.5 9.5 0
21.5 9.5 0
22.5 9.5 0
23.5 9.5 0
24.5 9.5 0
25.5 9.5 0
26.5 9.5 0
27.5 9.5 0
28.5 9.5 0
29.5 9.5 0
30.5 9.5 0
31.5 9.5 0
32.5 9.5 0
33.5 9.5 0
34.5 9.5 0
35.5 9.5 0
36.5 9.5 0
37.5 9.5 0
38.5 9.5 0
39.5 9.5 0
40.5 9.5 0
41.5 9.5 0
42.5 9.5 0
43.5 9.5 0
44.5 9.5 0
45.5 9.5 0
46.5 9.5 0
47.5 9.5 0
48.5 9.5 0
49.5 9.5 0
0 10 0
1 10 0
2 10 0
3 10 0
4 10 0
5 10 0
6 10 0
7 10 0
8 10 0
9 10 0
10 10 0
11 10 0
12 10 0
13 10 0
14 10 0
15 10 0
16 10 0
17 10 0
18 10 0
19 10 0
20 10 0
21 10 0
22 10 0
23 10 0
24 10 0
25 10 0
26 10 0
27 10 0
28 10 0
29 10 0
30 10 0
31 10 0
32 10 0
33 10 0
34 10 0
35 10 0
36 10 0
37 10 0
38 10 0
39 10 0
40 10 0
41 10 0
42 10 0
43 10 0
44 10 0
45 10 0
46 10 0
47 10 0
48 10 0
49 10 0
50 10 0
0.5 10.5 0
1.5 10.5 0
2.5 10.5 0
3.5 10.5 0
4.5 10.5 0
5.5 10.5 0
6.5 10.5 0
7.5 10.5 0
8.5 10.5 0
9.5 10.5 0
10.5 10.5 0
11.5 10.5 0
12.5 10.5 0
13.5 10.5 0
14.5 10.5 0
15.5 10.5 0
16.5 10.5 0
17.5 10.5 0
18.5 10.5 0
19.5 10.5 0
20.5 10.5 0
21.5 10.5 0
22.5 10.5 0
23.5 10.5 0
24.5 10.5 0
25.5 10.5 0
26.5 10.5 0
27.5 10.5 0
28.5 10.5 0
29.5 10.5 0
30.5 10.5 0
31.5 10.5 0
32.5 10.5 0
33.5 10.5 0
34.5 10.5 0
35.5 10.5 0
36.5 10.5 0
37.5 10.5 0
38.5 10.5 0
39.5 10.5 0
40.5 10.5 0
41.5 10.5 0
42.5 10.5 0
43.5 10.5 0
44.5 10.5 0
45.5 10.5 0
46.5 10.5 0
47.5 10.5 0
48.5 10.5 0
49.5 10.5 0
0 11 0
1 11 0
2 11 0
3 11 0
[...]
POINT_DATA 5101
VECTORS velocity float
-0.186623 -0.186623 0.964543
0.0193271 -0.257667 0.96604
0.208685 -0.375464 0.903038
0.356724 -0.516254 0.778607
0.451127 -0.657473 0.603501
0.486478 -0.778625 0.396337
0.465528 -0.866558 0.179892
0.396873 -0.917543 -0.0246308
0.291714 -0.935076 -0.201334
0.1617 -0.92618 -0.340652
0.017777 -0.898441 -0.438733
-0.13042 -0.858364 -0.496187
-0.274907 -0.810801 -0.516747
-0.409512 -0.759047 -0.50611
-0.529915 -0.70522 -0.471014
-0.63359 -0.650697 -0.418517
-0.719642 -0.596465 -0.35545
-0.78857 -0.543335 -0.288001
-0.841945 -0.492042 -0.221411
-0.88205 -0.443237 -0.159779
-0.911493 -0.39743 -0.105975
-0.932861 -0.354917 -0.0616741
-0.948454 -0.315721 -0.0274937
-0.960117 -0.279579 -0.00322359
-0.969202 -0.245977 0.0119081
-0.976597 -0.214236 0.0189839
-0.982813 -0.183602 0.0192036
-0.988077 -0.153343 0.0137691
-0.992421 -0.122821 0.00383813
-0.995757 -0.0915355 -0.00947449
-0.997934 -0.0591457 -0.0250758
-0.998798 -0.0254818 -0.0418812
-0.998223 0.00944996 -0.0588272
-0.996153 0.0454563 -0.0749226
-0.992608 0.0821492 -0.0893317
-0.9877 0.11896 -0.101475
-0.981615 0.155199 -0.111111
-0.974588 0.190176 -0.11837
-0.966853 0.223362 -0.123713
-0.95857 0.254575 -0.127809
-0.949744 0.284122 -0.13138
-0.940148 0.312873 -0.135028
-0.929276 0.342193 -0.139102
-0.916383 0.373688 -0.143528
-0.900663 0.408744 -0.147425
-0.881634 0.448042 -0.148257
-0.859482 0.491389 -0.140811
-0.834578 0.538465 -0.116344
-0.804684 0.5907 -0.0596377
-0.758891 0.649361 0.0491325
-0.704496 0.704496 0.0858464
-0.115462 -0.115462 0.986579
0.102073 -0.20959 0.972447
0.295253 -0.341301 0.892379
0.439384 -0.49109 0.752178
0.522322 -0.636228 0.567797
0.542457 -0.758567 0.360994
0.506417 -0.848502 0.153576
0.424795 -0.904549 -0.0366028
0.309274 -0.930349 -0.19698
0.171342 -0.93169 -0.320305
0.0216074 -0.914485 -0.404042
-0.130667 -0.883708 -0.44943
-0.277854 -0.843096 -0.46042
-0.414105 -0.795326 -0.44269
-0.535367 -0.742371 -0.402825
-0.639324 -0.685856 -0.347659
-0.725259 -0.627282 -0.283755
-0.793825 -0.568118 -0.216987
-0.846738 -0.509764 -0.152236
-0.886398 -0.453445 -0.0932
-0.9155 -0.400086 -0.0423333
-0.936672 -0.350208 -0.000919602
-0.952214 -0.303879 0.0307452
-0.963949 -0.260737 0.0530952
-0.973176 -0.220084 0.0670187
-0.98072 -0.181019 0.0736184
-0.987009 -0.142588 0.0740412
-0.992163 -0.103918 0.0693842
-0.996084 -0.0643251 0.0606588
-0.998535 -0.0233945 0.0487888
-0.999221 0.0189621 0.0346179
-0.997867 0.0624826 0.0189113
-0.994303 0.106567 0.00234714
-0.988528 0.150342 -0.0144989
-0.980747 0.192778 -0.0311683
-0.971362 0.232843 -0.0473263
-0.960905 0.269672 -0.0627597
-0.94994 0.302702 -0.0773688
-0.938947 0.331765 -0.0911572
-0.928211 0.357157 -0.104222
-0.917718 0.37969 -0.116746
-0.907076 0.40072 -0.128983
-0.895467 0.422132 -0.14122
-0.881674 0.446161 -0.153595
-0.864278 0.474994 -0.165541
-0.842155 0.510141 -0.174733
-0.815065 0.551952 -0.176118
-0.783499 0.600308 -0.160499
-0.74722 0.655164 -0.111455
-0.707102 0.707102 -0.00366777
-0.257667 0.0193271 0.96604
-0.0456135 -0.0456135 0.997917
0.182416 -0.155832 0.970794
0.378465 -0.300843 0.875361
0.51629 -0.459114 0.722951
0.586371 -0.608392 0.534816
0.592127 -0.733451 0.333819
0.543514 -0.827794 0.139101
0.452088 -0.891281 -0.0351487
0.329212 -0.927075 -0.17931
0.18563 -0.939481 -0.287953
0.0311945 -0.932662 -0.359399
-0.12539 -0.910057 -0.39506
-0.276757 -0.874344 -0.398659
-0.417002 -0.827718 -0.37549
-0.541796 -0.772253 -0.331786
-0.648489 -0.710149 -0.274137
-0.73613 -0.64378 -0.20895
-0.805333 -0.575573 -0.141967
-0.857963 -0.507773 -0.0778856
-0.896685 -0.442211 -0.0201499
-0.924474 -0.380133 0.0290859
-0.944193 -0.322121 0.0688278
-0.958284 -0.268122 0.099003
-0.96862 -0.217564 0.120169
-0.976478 -0.169532 0.133231
-0.982596 -0.122974 0.139221
-0.987281 -0.0768961 0.139151
-0.990519 -0.0305253 0.133945
-0.992091 0.0165676 0.124423
-0.991697 0.0643976 0.111313
-0.989068 0.112556 0.0952706
-0.984072 0.160273 0.0769098
-0.976786 0.206544 0.0568174
-0.967513 0.250308 0.0355685
-0.956739 0.290625 0.0137263
-0.945057 0.326803 -0.00817208
-0.933069 0.358473 -0.0296452
-0.921291 0.385607 -0.0503092
-0.910067 0.40852 -0.0699222
-0.899489 0.427902 -0.0884249
-0.889303 0.444871 -0.10597
-0.878817 0.461052 -0.122929
-0.866839 0.478579 -0.139826
-0.851712 0.499923 -0.157044
-0.831622 0.527364 -0.174047
-0.805328 0.56215 -0.18824
-0.773033 0.603973 -0.194005
-0.736715 0.651502 -0.181099
-0.700866 0.700866 -0.13257
-0.649361 0.758891 0.0491325
-0.20959 0.102073 0.972447
0.0252391 0.0252391 0.999363
0.262397 -0.0989334 0.959875
0.458029 -0.256132 0.851238
0.586518 -0.422696 0.690887
0.642987 -0.577099 0.503512
0.63547 -0.706633 0.311205
0.576083 -0.80695 0.13023
0.476711 -0.878608 -0.0281766
0.348172 -0.924235 -0.156738
0.200273 -0.946884 -0.251596
0.0418915 -0.949209 -0.311845
-0.11896 -0.933245 -0.338973
-0.275091 -0.900666 -0.336341
-0.420242 -0.853269 -0.308752
-0.549406 -0.793396 -0.262059
-0.659262 -0.724082 -0.202677
-0.74849 -0.648847 -0.136968
-0.817734 -0.571246 -0.0706287
-0.869203 -0.494386 -0.00821681
-0.906034 -0.420579 0.0470736
-0.931633 -0.351195 0.0933867
-0.949161 -0.286692 0.130004
-0.961202 -0.226771 0.157053
-0.969641 -0.1706 0.175192
-0.975676 -0.117069 0.18534
-0.979921 -0.0650536 0.188477
-0.982544 -0.0136229 0.18553
-0.983425 0.0377891 0.177336
-0.982303 0.0892901 0.164645
-0.978931 0.140516 0.148153
-0.973196 0.190707 0.128535
-0.965198 0.238862 0.106475
-0.95527 0.283944 0.0826713
-0.943923 0.325062 0.0578355
-0.93176 0.361601 0.0326634
-0.919389 0.393272 0.00779657
-0.907335 0.420095 -0.0162279
-0.895977 0.442381 -0.0390304
-0.885478 0.460734 -0.0604397
-0.875694 0.476102 -0.0805361
-0.866079 0.489868 -0.0996789
-0.855575 0.503935 -0.118492
-0.842569 0.520684 -0.137717
-0.82503 0.542639 -0.157697
-0.801073 0.571694 -0.177338
-0.77002 0.608118 -0.193034
-0.733391 0.650303 -0.198099
-0.695096 0.695096 -0.183533
-0.655164 0.74722 -0.111455
-0.375464 0.208685 0.903038
-0.155832 0.182416 0.970794
0.0966404 0.0966404 0.990617
0.340723 -0.0396786 0.939326
0.532533 -0.208095 0.82043
0.649893 -0.382953 0.656496
0.693179 -0.543452 0.473459
0.673878 -0.678857 0.291619
0.605293 -0.786176 0.124689
0.49928 -0.866245 -0.0184163
0.365986 -0.921166 -0.132316
0.214194 -0.952958 -0.214458
0.0517623 -0.962987 -0.264532
-0.11391 -0.95204 -0.28398
-0.275569 -0.920884 -0.275744
-0.426248 -0.871031 -0.244169
-0.559948 -0.805291 -0.194847
-0.672563 -0.727779 -0.134152
-0.762514 -0.643337 -0.0684875
-0.830732 -0.556662 -0.00349967
-0.880014 -0.471579 0.0564622
-0.914118 -0.390654 0.108521
-0.936919 -0.315174 0.151157
-0.95183 -0.245334 0.183929
-0.961509 -0.180535 0.207143
-0.967776 -0.119698 0.221543
-0.971698 -0.0615848 0.228057
-0.973735 -0.00508001 0.22763
-0.97393 0.0505865 0.221138
-0.972103 0.105701 0.209385
-0.968036 0.160028 0.193124
-0.961623 0.212878 0.173101
-0.952974 0.263277 0.150084
-0.942437 0.310191 0.124879
-0.930545 0.352735 0.0983055
-0.917929 0.39031 0.0711705
-0.905212 0.422654 0.0442188
-0.892938 0.449815 0.018084
-0.881516 0.472107 -0.00676333
-0.871156 0.490084 -0.0300674
-0.861805 0.504585 -0.0518361
-0.853035 0.51681 -0.0723797
-0.843932 0.528445 -0.0923251
-0.833003 0.541699 -0.112549
-0.818199 0.559132 -0.133872
-0.797272 0.583047 -0.156246
-0.768711 0.614442 -0.17761
-0.733023 0.652127 -0.193411
-0.693131 0.693131 -0.197835
-0.651502 0.736715 -0.181099
-0.5907 0.804684 -0.0596377
-0.341301 0.295253 0.892379
-0.0989334 0.262397 0.959875
0.168319 0.168319 0.971256
0.415827 0.0209711 0.909202
0.600904 -0.157877 0.783575
0.706535 -0.34092 0.620147
0.737785 -0.508205 0.444298
0.708322 -0.650464 0.274182
0.631945 -0.765451 0.121372
0.520236 -0.853993 -0.00708173
0.38258 -0.917669 -0.107314
0.226731 -0.957597 -0.177765
0.0596381 -0.974016 -0.218485
-0.111664 -0.966582 -0.23076
-0.279515 -0.935265 -0.217142
-0.435912 -0.881463 -0.181668
-0.573711 -0.808697 -0.129861
-0.688119 -0.722387 -0.0681855
-0.77759 -0.628764 -0.00308809
-0.843641 -0.533552 0.0599311
-0.88984 -0.441058 0.116845
-0.920593 -0.353876 0.165165
-0.940178 -0.273059 0.203725
-0.952168 -0.198485 0.232335
-0.959198 -0.12927 0.251453
-0.962965 -0.0641567 0.261883
-0.964369 -0.00187149 0.264553
-0.963727 0.0585844 0.260382
-0.961003 0.117731 0.250227
-0.956041 0.175522 0.234898
-0.94876 0.231392 0.215202
-0.939279 0.284425 0.191981
-0.927966 0.33359 0.166125
-0.915383 0.377991 0.138551
-0.902196 0.417021 0.110163
-0.889059 0.450427 0.0817961
-0.876541 0.47827 0.0541667
-0.865075 0.500871 0.0278225
-0.854913 0.518762 0.00309409
-0.846066 0.532705 -0.019955
-0.838208 0.543764 -0.041574
-0.830555 0.553435 -0.0623545
-0.821747 0.563745 -0.0832085
-0.809805 0.577191 -0.105196
-0.79232 0.596318 -0.128972
-0.767146 0.62278 -0.153728
-0.7337 0.656162 -0.176451
-0.693835 0.693835 -0.19284
-0.650303 0.733391 -0.198099
-0.600308 0.783499 -0.160499
-0.516254 0.356724 0.778607
-0.300843 0.378465 0.875361
-0.0396786 0.340723 0.939326
0.238796 0.238796 0.941251
0.485785 0.0812064 0.870298
0.662135 -0.107142 0.741686
0.756418 -0.297974 0.582274
0.777173 -0.472365 0.41578
0.73917 -0.622041 0.258249
0.656236 -0.745038 0.119467
0.539496 -0.841974 0.00498328
0.397518 -0.913878 -0.0824996
0.237117 -0.961034 -0.142088
0.0645628 -0.982631 -0.173979
-0.113133 -0.977276 -0.179258
-0.287534 -0.944276 -0.160207
-0.449361 -0.885148 -0.120778
-0.590337 -0.804403 -0.0666165
-0.705258 -0.708938 -0.00433733
-0.792969 -0.606334 0.0596559
-0.855817 -0.50313 0.120155
-0.898205 -0.40386 0.173566
-0.92512 -0.310969 0.217832
-0.941128 -0.225196 0.252119
-0.949854 -0.146114 0.276455
-0.953839 -0.0726226 0.291405
-0.954619 -0.00338862 0.29781
-0.952938 0.0627845 0.296594
-0.949014 0.126671 0.288664
-0.942824 0.188467 0.274887
-0.934345 0.247787 0.256126
-0.923728 0.303814 0.233289
-0.911368 0.355553 0.207341
-0.897868 0.402103 0.179293
-0.883934 0.442853 0.150141
-0.870258 0.477552 0.12081
-0.857437 0.50628 0.0920972
-0.845926 0.52937 0.0646219
-0.836009 0.547343 0.0387833
-0.827749 0.560906 0.0147119
-0.820904 0.571013 -0.00777977
-0.814804 0.578999 -0.0292354
-0.808217 0.58671 -0.0505563
-0.799269 0.596535 -0.0729065
-0.785513 0.611139 -0.0973593
-0.764395 0.6327 -0.124064
-0.734361 0.661685 -0.151285
-0.696108 0.696108 -0.17569
-0.652127 0.733023 -0.193411
-0.603973 0.773033 -0.194005
-0.538465 0.834578 -0.116344
-0.49109 0.439384 0.752178
-0.256132 0.458029 0.851238
0.0209711 0.415827 0.909202
0.30607 0.30607 0.901467
0.549022 0.139148 0.824144
0.715722 -0.0574526 0.696019
0.799701 -0.255404 0.543367
0.811642 -0.436888 0.387772
0.76662 -0.594198 0.243357
0.678164 -0.725309 0.118409
0.556809 -0.830461 0.0172812
0.410322 -0.910084 -0.0581577
0.244738 -0.963622 -0.107402
0.0659511 -0.989232 -0.130657
-0.118674 -0.984538 -0.128848
-0.299595 -0.948361 -0.104185
-0.466134 -0.882625 -0.0607679
-0.609056 -0.793114 -0.00450242
-0.723114 -0.688299 0.0578866
-0.807872 -0.576972 0.120195
-0.866646 -0.46622 0.177662
-0.904628 -0.360589 0.227208
-0.927267 -0.262251 0.267207
-0.939288 -0.171628 0.297121
-0.944282 -0.088046 0.317142
-0.944654 -0.0102958 0.327905
-0.941789 0.0629122 0.330267
-0.936324 0.132576 0.325148
-0.928481 0.199155 0.313465
-0.918366 0.262494 0.296142
-0.906203 0.321929 0.274151
-0.892437 0.376543 0.248539
-0.877725 0.425464 0.220408
-0.862821 0.468096 0.190855
-0.848458 0.504211 0.160902
-0.835256 0.533923 0.131427
-0.823686 0.557592 0.103118
-0.814053 0.575739 0.0764371
-0.806463 0.589031 0.0515724
-0.800745 0.598332 0.0283919
-0.79633 0.604828 0.006398
-0.792105 0.610194 -0.0152848
-0.7863 0.616684 -0.0378531
-0.7765 0.627 -0.0626009
-0.759926 0.643703 -0.0903258
-0.734277 0.668094 -0.120365
-0.699081 0.699081 -0.150242
-0.656162 0.7337 -0.176451
-0.608118 0.77002 -0.193034
-0.551952 0.815065 -0.176118
-0.657473 0.451127 0.603501
-0.459114 0.51629 0.722951
-0.208095 0.532533 0.82043
0.0812064 0.485785 0.870298
0.368306 0.368306 0.85364
0.604671 0.193342 0.772652
0.761718 -0.0100166 0.647832
0.836778 -0.21424 0.503888
0.841544 -0.40256 0.360206
0.790849 -0.567476 0.229191
0.697686 -0.706642 0.117858
0.571925 -0.819771 0.0296308
0.420599 -0.906602 -0.0341779
0.24919 -0.96568 -0.0732539
0.0635479 -0.994112 -0.0877693
-0.128242 -0.988622 -0.0786154
-0.315275 -0.947777 -0.0481646
-0.48548 -0.874247 -0.000867693
-0.628965 -0.775336 0.0570684
-0.740826 -0.661083 0.118942
-0.821589 -0.541269 0.178942
-0.875559 -0.423272 0.23289
-0.908602 -0.311473 0.278258
-0.926478 -0.20773 0.313825
-0.933967 -0.112191 0.339291
-0.934572 -0.0240417 0.35496
-0.930573 0.0579097 0.361498
-0.923259 0.134776 0.359762
-0.913275 0.207247 0.350682
-0.900978 0.27542 0.335235
-0.886738 0.338833 0.314464
-0.871101 0.396697 0.289508
-0.854799 0.448214 0.261578
-0.838651 0.492842 0.231889
-0.823425 0.530415 0.20157
-0.809758 0.561114 0.171589
-0.79812 0.585355 0.142704
-0.788823 0.603684 0.115428
-0.782001 0.616745 0.0899995
-0.777543 0.625322 0.0663274
-0.774971 0.630466 0.0439505
-0.773279 0.633684 0.022016
-0.770797 0.63708 -0.000678932
-0.765161 0.643333 -0.0255292
-0.753488 0.655264 -0.0537161
-0.732971 0.674877 -0.0854014
-0.702085 0.702085 -0.11897
-0.661685 0.734361 -0.151285
-0.614442 0.768711 -0.17761
-0.56215 0.805328 -0.18824
-0.491389 0.859482 -0.140811
-0.636228 0.522322 0.567797
-0.422696 0.586518 0.690887
-0.157877 0.600904 0.783575
0.139148 0.549022 0.824144
0.42433 0.42433 0.79993
0.652638 0.242956 0.71766
0.800636 0.0344078 0.598162
0.868239 -0.175175 0.464192
0.867319 -0.36992 0.333042
0.812081 -0.542267 0.215571
0.714811 -0.68934 0.117706
0.584681 -0.810167 0.0421592
0.428115 -0.903668 -0.0101097
0.250296 -0.967389 -0.0388759
0.0573791 -0.997368 -0.0443294
-0.141497 -0.989556 -0.027522
-0.3339 -0.942568 0.00877459
-0.506506 -0.860172 0.059627
-0.649138 -0.751369 0.118595
-0.757585 -0.627655 0.179204
-0.833463 -0.499533 0.236233
-0.881986 -0.374433 0.286181
-0.90953 -0.256472 0.327073
-0.922028 -0.147211 0.35804
-0.92424 -0.046622 0.378955
-0.919584 0.0461151 0.390177
-0.910282 0.132025 0.392371
-0.897658 0.211914 0.386397
-0.88252 0.286094 0.373241
-0.865521 0.354324 0.354016
-0.847394 0.415988 0.329966
-0.829001 0.470413 0.302437
-0.811248 0.517167 0.27279
-0.794945 0.556201 0.242287
-0.780725 0.587813 0.212001
-0.769033 0.612525 0.182762
-0.760158 0.630948 0.155129
-0.75424 0.643728 0.129372
-0.751213 0.651585 0.105428
-0.750681 0.655448 0.0828576
-0.751734 0.656656 0.0608152
-0.752791 0.657157 0.0380924
-0.751537 0.659558 0.0132483
-0.745043 0.666845 -0.0150958
-0.730193 0.681577 -0.0476545
-0.70463 0.70463 -0.083622
-0.668094 0.734277 -0.120365
-0.62278 0.767146 -0.153728
-0.571694 0.801073 -0.177338
-0.510141 0.842155 -0.174733
-0.778625 0.486478 0.396337
-0.608392 0.586371 0.534816
-0.382953 0.649893 0.656496
-0.107142 0.662135 0.741686
0.193342 0.604671 0.772652
0.473743 0.473743 0.742385
0.693406 0.287726 0.660607
0.833249 0.075476 0.547723
0.894769 -0.138555 0.42449
0.88945 -0.339244 0.306255
0.830592 -0.518777 0.202456
0.72963 -0.673572 0.118073
0.595046 -0.80179 0.0552667
0.432814 -0.901362 0.0147648
0.248105 -0.968728 -0.00329074
0.047723 -0.99886 0.000758799
-0.157851 -0.987135 0.0254686
-0.354605 -0.932579 0.0674628
-0.528223 -0.840398 0.121292
-0.668645 -0.721354 0.180452
-0.772617 -0.588192 0.23894
-0.84285 -0.451848 0.292295
-0.885305 -0.319628 0.337747
-0.906689 -0.19535 0.373835
-0.912997 -0.080364 0.399973
-0.908948 0.0253902 0.416135
-0.89795 0.12257 0.422686
-0.882313 0.211872 0.420279
-0.863593 0.293693 0.409819
-0.842963 0.367967 0.392446
-0.821506 0.434268 0.369512
-0.800321 0.492098 0.342528
-0.780455 0.541199 0.313038
-0.762773 0.581709 0.282476
-0.747884 0.614121 0.252043
-0.736169 0.639127 0.222647
-0.72785 0.65746 0.194887
-0.723033 0.66981 0.169052
-0.721671 0.676861 0.145087
-0.723433 0.67943 0.122553
-0.727499 0.678694 0.100596
-0.732363 0.676434 0.0779848
-0.735742 0.675165 0.0532459
-0.734678 0.677958 0.0249084
-0.725867 0.687788 -0.00805646
-0.706375 0.706375 -0.0454952
-0.674877 0.732971 -0.0854014
-0.6327 0.764395 -0.124064
-0.583047 0.797272 -0.156246
-0.527364 0.831622 -0.174047
-0.448042 0.881634 -0.148257
-0.758567 0.542457 0.360994
-0.577099 0.642987 0.503512
-0.34092 0.706535 0.620147
-0.0574526 0.715722 0.696019
0.242956 0.652638 0.71766
0.516759 0.516759 0.682584
0.727759 0.327779 0.602435
0.860394 0.113156 0.496909
0.917043 -0.10445 0.384866
0.908424 -0.310572 0.27984
0.846696 -0.497023 0.189933
0.742325 -0.659339 0.119273
0.603132 -0.794602 0.0695676
0.434833 -0.899561 0.0413458
0.242893 -0.969436 0.0345876
0.0351101 -0.998201 0.0486011
-0.176476 -0.980941 0.081306
-0.376348 -0.917512 0.128584
-0.549558 -0.814818 0.18455
-0.686545 -0.68532 0.242883
-0.785157 -0.542721 0.2983
-0.84908 -0.398117 0.347226
-0.884808 -0.258582 0.387621
-0.899206 -0.127686 0.418479
-0.898263 -0.00671569 0.439408
-0.886714 0.104219 0.450419
-0.868121 0.205401 0.451858
-0.845138 0.297044 0.444418
-0.819818 0.379098 0.429165
-0.793895 0.451279 0.407528
-0.768908 0.513293 0.381197
-0.746166 0.565129 0.351944
-0.726629 0.607206 0.32142
-0.710869 0.640308 0.290982
-0.69915 0.665387 0.261628
-0.691559 0.68337 0.233991
-0.688109 0.695048 0.208358
-0.688727 0.701109 0.184664
-0.693121 0.702277 0.162451
-0.700544 0.699575 0.140832
-0.709552 0.694612 0.118534
-0.717877 0.68979 0.0940378
-0.722509 0.688221 0.0658229
-0.720015 0.693187 0.0327154
-0.707096 0.707096 -0.00556371
-0.681577 0.730193 -0.0476545
-0.643703 0.759926 -0.0903258
-0.596318 0.79232 -0.128972
-0.542639 0.82503 -0.157697
-0.474994 0.864278 -0.165541
-0.866558 0.465528 0.179892
-0.733451 0.592127 0.333819
-0.543452 0.693179 0.473459
-0.297974 0.756418 0.582274
-0.0100166 0.761718 0.647832
0.287726 0.693406 0.660607
0.55393 0.55393 0.621549
0.756534 0.363446 0.543657
0.882837 0.147614 0.445881
0.935658 -0.0727355 0.34533
0.924687 -0.283771 0.253827
0.860727 -0.476859 0.1782
0.753157 -0.646473 0.121771
0.609187 -0.788369 0.0858235
0.434496 -0.897899 0.0706379
0.235175 -0.968987 0.0758722
0.0203414 -0.994755 0.100239
-0.196285 -0.970385 0.140803
-0.397899 -0.896972 0.192661
-0.569346 -0.783265 0.249681
-0.701878 -0.64321 0.306019
-0.794433 -0.491118 0.357322
-0.85145 -0.338025 0.400964
-0.879701 -0.190751 0.435592
-0.886058 -0.0527613 0.460562
-0.876502 0.074477 0.475602
-0.855949 0.190391 0.480731
-0.828426 0.294634 0.476342
-0.797306 0.386838 0.463314
-0.765447 0.466672 0.443067
-0.73522 0.534026 0.417454
-0.708438 0.58922 0.388504
-0.686265 0.633078 0.358123
-0.669241 0.666802 0.327858
-0.657452 0.691719 0.298801
-0.650764 0.709041 0.271602
-0.649007 0.719733 0.246526
-0.652008 0.724531 0.223472
-0.65947 0.724099 0.20194
-0.670695 0.719312 0.180993
-0.684283 0.711606 0.15929
-0.69795 0.70326 0.135241
-0.708604 0.697403 0.107282
-0.712683 0.697552 0.0741903
-0.706662 0.706662 0.0354681
-0.687788 0.725867 -0.00805646
-0.655264 0.753488 -0.0537161
-0.611139 0.785513 -0.0973593
-0.559132 0.818199 -0.133872
-0.499923 0.851712 -0.157044
-0.408744 0.900663 -0.147425
-0.848502 0.506417 0.153576
-0.706633 0.63547 0.311205
-0.508205 0.737785 0.444298
-0.255404 0.799701 0.543367
0.0344078 0.800636 0.598162
0.327779 0.727759 0.602435
0.585912 0.585912 0.559835
0.780478 0.395132 0.484485
0.901201 0.179111 0.39466
0.951096 -0.0431713 0.305862
0.938626 -0.258578 0.228295
0.873025 -0.45799 0.167547
0.762459 -0.634621 0.126143
0.613594 -0.782623 0.104894
0.432325 -0.895735 0.103697
0.22573 -0.966564 0.121655
0.00452383 -0.987649 0.156618
-0.215906 -0.95473 0.204636
-0.417831 -0.870499 0.260094
-0.586343 -0.74551 0.316886
-0.713678 -0.594827 0.369925
-0.799695 -0.433002 0.415929
-0.849253 -0.270865 0.453213
-0.869122 -0.115078 0.481024
-0.866059 0.0307097 0.498997
-0.846143 0.164437 0.506955
-0.814822 0.284641 0.505019
-0.777123 0.390116 0.493851
-0.737637 0.480063 0.474796
-0.700218 0.554399 0.449818
-0.667664 0.613854 0.421199
-0.641592 0.659841 0.391113
-0.622569 0.694169 0.361299
-0.610448 0.718688 0.332928
-0.604765 0.735006 0.306636
-0.605044 0.744341 0.282627
-0.610913 0.747534 0.260726
-0.621991 0.745218 0.240367
-0.637587 0.738136 0.220542