# vtk DataFile Version 2.0
tmp/0.000.00-10.000.000.001.0085.vtk
ASCII
DATASET UNSTRUCTURED_GRID
POINTS 5000 float
0.25 0.25 0
1.25 0.25 0
2.25 0.25 0
3.25 0.25 0
4.25 0.25 0
5.25 0.25 0
6.25 0.25 0
7.25 0.25 0
8.25 0.25 0
9.25 0.25 0
10.25 0.25 0
11.25 0.25 0
12.25 0.25 0
13.25 0.25 0
14.25 0.25 0
15.25 0.25 0
16.25 0.25 0
17.25 0.25 0
18.25 0.25 0
19.25 0.25 0
20.25 0.25 0
21.25 0.25 0
22.25 0.25 0
23.25 0.25 0
24.25 0.25 0
25.25 0.25 0
26.25 0.25 0
27.25 0.25 0
28.25 0.25 0
29.25 0.25 0
30.25 0.25 0
31.25 0.25 0
32.25 0.25 0
33.25 0.25 0
34.25 0.25 0
35.25 0.25 0
36.25 0.25 0
37.25 0.25 0
38.25 0.25 0
39.25 0.25 0
40.25 0.25 0
41.25 0.25 0
42.25 0.25 0
43.25 0.25 0
44.25 0.25 0
45.25 0.25 0
46.25 0.25 0
47.25 0.25 0
48.25 0.25 0
49.25 0.25 0
0.75 0.75 0
1.75 0.75 0
2.75 0.75 0
3.75 0.75 0
4.75 0.75 0
5.75 0.75 0
6.75 0.75 0
7.75 0.75 0
8.75 0.75 0
9.75 0.75 0
10.75 0.75 0
11.75 0.75 0
12.75 0.75 0
13.75 0.75 0
14.75 0.75 0
15.75 0.75 0
16.75 0.75 0
17.75 0.75 0
18.75 0.75 0
19.75 0.75 0
20.75 0.75 0
21.75 0.75 0
22.75 0.75 0
23.75 0.75 0
24.75 0.75 0
25.75 0.75 0
26.75 0.75 0
27.75 0.75 0
28.75 0.75 0
29.75 0.75 0
30.75 0.75 0
31.75 0.75 0
32.75 0.75 0
33.75 0.75 0
34.75 0.75 0
35.75 0.75 0
36.75 0.75 0
37.75 0.75 0
38.75 0.75 0
39.75 0.75 0
40.75 0.75 0
41.75 0.75 0
42.75 0.75 0
43.75 0.75 0
44.75 0.75 0
45.75 0.75 0
46.75 0.75 0
47.75 0.75 0
48.75 0.75 0
49.75 0.75 0
0.25 1.25 0
1.25 1.25 0
2.25 1.25 0
3.25 1.25 0
4.25 1.25 0
5.25 1.25 0
6.25 1.25 0
7.25 1.25 0
8.25 1.25 0
9.25 1.25 0
10.25 1.25 0
11.25 1.25 0
12.25 1.25 0
13.25 1.25 0
14.25 1.25 0
15.25 1.25 0
16.25 1.25 0
17.25 1.25 0
18.25 1.25 0
19.25 1.25 0
20.25 1.25 0
21.25 1.25 0
22.25 1.25 0
23.25 1.25 0
24.25 1.25 0
25.25 1.25 0
26.25 1.25 0
27.25 1.25 0
28.25 1.25 0
29.25 1.25 0
30.25 1.25 0
31.25 1.25 0
32.25 1.25 0
33.25 1.25 0
34.25 1.25 0
35.25 1.25 0
36.25 1.25 0
37.25 1.25 0
38.25 1.25 0
39.25 1.25 0
40.25 1.25 0
41.25 1.25 0
42.25 1.25 0
43.25 1.25 0
44.25 1.25 0
45.25 1.25 0
46.25 1.25 0
47.25 1.25 0
48.25 1.25 0
49.25 1.25 0
0.75 1.75 0
1.75 1.75 0
2.75 1.75 0
3.75 1.75 0
4.75 1.75 0
5.75 1.75 0
6.75 1.75 0
7.75 1.75 0
8.75 1.75 0
9.75 1.75 0
10.75 1.75 0
11.75 1.75 0
12.75 1.75 0
13.75 1.75 0
14.75 1.75 0
15.75 1.75 0
16.75 1.75 0
17.75 1.75 0
18.75 1.75 0
19.75 1.75 0
20.75 1.75 0
21.75 1.75 0
22.75 1.75 0
23.75 1.75 0
24.75 1.75 0
25.75 1.75 0
26.75 1.75 0
27.75 1.75 0
28.75 1.75 0
29.75 1.75 0
30.75 1.75 0
31.75 1.75 0
32.75 1.75 0
33.75 1.75 0
34.75 1.75 0
35.75 1.75 0
36.75 1.75 0
37.75 1.75 0
38.75 1.75 0
39.75 1.75 0
40.75 1.75 0
41.75 1.75 0
42.75 1.75 0
43.75 1.75 0
44.75 1.75 0
45.75 1.75 0
46.75 1.75 0
47.75 1.75 0
48.75 1.75 0
49.75 1.75 0
0.25 2.25 0
1.25 2.25 0
2.25 2.25 0
3.25 2.25 0
4.25 2.25 0
5.25 2.25 0
6.25 2.25 0
7.25 2.25 0
8.25 2.25 0
9.25 2.25 0
10.25 2.25 0
11.25 2.25 0
12.25 2.25 0
13.25 2.25 0
14.25 2.25 0
15.25 2.25 0
16.25 2.25 0
17.25 2.25 0
18.25 2.25 0
19.25 2.25 0
20.25 2.25 0
21.25 2.25 0
22.25 2.25 0
23.25 2.25 0
24.25 2.25 0
25.25 2.25 0
26.25 2.25 0
27.25 2.25 0
28.25 2.25 0
29.25 2.25 0
30.25 2.25 0
31.25 2.25 0
32.25 2.25 0
33.25 2.25 0
34.25 2.25 0
35.25 2.25 0
36.25 2.25 0
37.25 2.25 0
38.25 2.25 0
39.25 2.25 0
40.25 2.25 0
41.25 2.25 0
42.25 2.25 0
43.25 2.25 0
44.25 2.25 0
45.25 2.25 0
46.25 2.25 0
47.25 2.25 0
48.25 2.25 0
49.25 2.25 0
0.75 2.75 0
1.75 2.75 0
2.75 2.75 0
3.75 2.75 0
4.75 2.75 0
5.75 2.75 0
6.75 2.75 0
7.75 2.75 0
8.75 2.75 0
9.75 2.75 0
10.75 2.75 0
11.75 2.75 0
12.75 2.75 0
13.75 2.75 0
14.75 2.75 0
15.75 2.75 0
16.75 2.75 0
17.75 2.75 0
18.75 2.75 0
19.75 2.75 0
20.75 2.75 0
21.75 2.75 0
22.75 2.75 0
23.75 2.75 0
24.75 2.75 0
25.75 2.75 0
26.75 2.75 0
27.75 2.75 0
28.75 2.75 0
29.75 2.75 0
30.75 2.75 0
31.75 2.75 0
32.75 2.75 0
33.75 2.75 0
34.75 2.75 0
35.75 2.75 0
36.75 2.75 0
37.75 2.75 0
38.75 2.75 0
39.75 2.75 0
40.75 2.75 0
41.75 2.75 0
42.75 2.75 0
43.75 2.75 0
44.75 2.75 0
45.75 2.75 0
46.75 2.75 0
47.75 2.75 0
48.75 2.75 0
49.75 2.75 0
0.25 3.25 0
1.25 3.25 0
2.25 3.25 0
3.25 3.25 0
4.25 3.25 0
5.25 3.25 0
6.25 3.25 0
7.25 3.25 0
8.25 3.25 0
9.25 3.25 0
10.25 3.25 0
11.25 3.25 0
12.25 3.25 0
13.25 3.25 0
14.25 3.25 0
15.25 3.25 0
16.25 3.25 0
17.25 3.25 0
18.25 3.25 0
19.25 3.25 0
20.25 3.25 0
21.25 3.25 0
22.25 3.25 0
23.25 3.25 0
24.25 3.25 0
25.25 3.25 0
26.25 3.25 0
27.25 3.25 0
28.25 3.25 0
29.25 3.25 0
30.25 3.25 0
31.25 3.25 0
32.25 3.25 0
33.25 3.25 0
34.25 3.25 0
35.25 3.25 0
36.25 3.25 0
37.25 3.25 0
38.25 3.25 0
39.25 3.25 0
40.25 3.25 0
41.25 3.25 0
42.25 3.25 0
43.25 3.25 0
44.25 3.25 0
45.25 3.25 0
46.25 3.25 0
47.25 3.25 0
48.25 3.25 0
49.25 3.25 0
0.75 3.75 0
1.75 3.75 0
2.75 3.75 0
3.75 3.75 0
4.75 3.75 0
5.75 3.75 0
6.75 3.75 0
7.75 3.75 0
8.75 3.75 0
9.75 3.75 0
10.75 3.75 0
11.75 3.75 0
12.75 3.75 0
13.75 3.75 0
14.75 3.75 0
15.75 3.75 0
16.75 3.75 0
17.75 3.75 0
18.75 3.75 0
19.75 3.75 0
20.75 3.75 0
21.75 3.75 0
22.75 3.75 0
23.75 3.75 0
24.75 3.75 0
25.75 3.75 0
26.75 3.75 0
27.75 3.75 0
28.75 3.75 0
29.75 3.75 0
30.75 3.75 0
31.75 3.75 0
32.75 3.75 0
33.75 3.75 0
34.75 3.75 0
35.75 3.75 0
36.75 3.75 0
37.75 3.75 0
38.75 3.75 0
39.75 3.75 0
40.75 3.75 0
41.75 3.75 0
42.75 3.75 0
43.75 3.75 0
44.75 3.75 0
45.75 3.75 0
46.75 3.75 0
47.75 3.75 0
48.75 3.75 0
49.75 3.75 0
0.25 4.25 0
1.25 4.25 0
2.25 4.25 0
3.25 4.25 0
4.25 4.25 0
5.25 4.25 0
6.25 4.25 0
7.25 4.25 0
8.25 4.25 0
9.25 4.25 0
10.25 4.25 0
11.25 4.25 0
12.25 4.25 0
13.25 4.25 0
14.25 4.25 0
15.25 4.25 0
16.25 4.25 0
17.25 4.25 0
18.25 4.25 0
19.25 4.25 0
20.25 4.25 0
21.25 4.25 0
22.25 4.25 0
23.25 4.25 0
24.25 4.25 0
25.25 4.25 0
26.25 4.25 0
27.25 4.25 0
28.25 4.25 0
29.25 4.25 0
30.25 4.25 0
31.25 4.25 0
32.25 4.25 0
33.25 4.25 0
34.25 4.25 0
35.25 4.25 0
36.25 4.25 0
37.25 4.25 0
38.25 4.25 0
39.25 4.25 0
40.25 4.25 0
41.25 4.25 0
42.25 4.25 0
43.25 4.25 0
44.25 4.25 0
45.25 4.25 0
46.25 4.25 0
47.25 4.25 0
48.25 4.25 0
49.25 4.25 0
0.75 4.75 0
1.75 4.75 0
2.75 4.75 0
3.75 4.75 0
4.75 4.75 0
5.75 4.75 0
6.75 4.75 0
7.75 4.75 0
8.75 4.75 0
9.75 4.75 0
10.75 4.75 0
11.75 4.75 0
12.75 4.75 0
13.75 4.75 0
14.75 4.75 0
15.75 4.75 0
16.75 4.75 0
17.75 4.75 0
18.75 4.75 0
19.75 4.75 0
20.75 4.75 0
21.75 4.75 0
22.75 4.75 0
23.75 4.75 0
24.75 4.75 0
25.75 4.75 0
26.75 4.75 0
27.75 4.75 0
28.75 4.75 0
29.75 4.75 0
30.75 4.75 0
31.75 4.75 0
32.75 4.75 0
33.75 4.75 0
34.75 4.75 0
35.75 4.75 0
36.75 4.75 0
37.75 4.75 0
38.75 4.75 0
39.75 4.75 0
40.75 4.75 0
41.75 4.75 0
42.75 4.75 0
43.75 4.75 0
44.75 4.75 0
45.75 4.75 0
46.75 4.75 0
47.75 4.75 0
48.75 4.75 0
49.75 4.75 0
0.25 5.25 0
1.25 5.25 0
2.25 5.25 0
3.25 5.25 0
4.25 5.25 0
5.25 5.25 0
6.25 5.25 0
7.25 5.25 0
8.25 5.25 0
9.25 5.25 0
10.25 5.25 0
11.25 5.25 0
12.25 5.25 0
13.25 5.25 0
14.25 5.25 0
15.25 5.25 0
16.25 5.25 0
17.25 5.25 0
18.25 5.25 0
19.25 5.25 0
20.25 5.25 0
21.25 5.25 0
22.25 5.25 0
23.25 5.25 0
24.25 5.25 0
25.25 5.25 0
26.25 5.25 0
27.25 5.25 0
28.25 5.25 0
29.25 5.25 0
30.25 5.25 0
31.25 5.25 0
32.25 5.25 0
33.25 5.25 0
34.25 5.25 0
35.25 5.25 0
36.25 5.25 0
37.25 5.25 0
38.25 5.25 0
39.25 5.25 0
40.25 5.25 0
41.25 5.25 0
42.25 5.25 0
43.25 5.25 0
44.25 5.25 0
45.25 5.25 0
46.25 5.25 0
47.25 5.25 0
48.25 5.25 0
49.25 5.25 0
0.75 5.75 0
1.75 5.75 0
2.75 5.75 0
3.75 5.75 0
4.75 5.75 0
5.75 5.75 0
6.75 5.75 0
7.75 5.75 0
8.75 5.75 0
9.75 5.75 0
10.75 5.75 0
11.75 5.75 0
12.75 5.75 0
13.75 5.75 0
14.75 5.75 0
15.75 5.75 0
16.75 5.75 0
17.75 5.75 0
18.75 5.75 0
19.75 5.75 0
20.75 5.75 0
21.75 5.75 0
22.75 5.75 0
23.75 5.75 0
24.75 5.75 0
25.75 5.75 0
26.75 5.75 0
27.75 5.75 0
28.75 5.75 0
29.75 5.75 0
30.75 5.75 0
31.75 5.75 0
32.75 5.75 0
33.75 5.75 0
34.75 5.75 0
35.75 5.75 0
36.75 5.75 0
37.75 5.75 0
38.75 5.75 0
39.75 5.75 0
40.75 5.75 0
41.75 5.75 0
42.75 5.75 0
43.75 5.75 0
44.75 5.75 0
45.75 5.75 0
46.75 5.75 0
47.75 5.75 0
48.75 5.75 0
49.75 5.75 0
0.25 6.25 0
1.25 6.25 0
2.25 6.25 0
3.25 6.25 0
4.25 6.25 0
5.25 6.25 0
6.25 6.25 0
7.25 6.25 0
8.25 6.25 0
9.25 6.25 0
10.25 6.25 0
11.25 6.25 0
12.25 6.25 0
13.25 6.25 0
14.25 6.25 0
15.25 6.25 0
16.25 6.25 0
17.25 6.25 0
18.25 6.25 0
19.25 6.25 0
20.25 6.25 0
21.25 6.25 0
22.25 6.25 0
23.25 6.25 0
24.25 6.25 0
25.25 6.25 0
26.25 6.25 0
27.25 6.25 0
28.25 6.25 0
29.25 6.25 0
30.25 6.25 0
31.25 6.25 0
32.25 6.25 0
33.25 6.25 0
34.25 6.25 0
35.25 6.25 0
36.25 6.25 0
37.25 6.25 0
38.25 6.25 0
39.25 6.25 0
40.25 6.25 0
41.25 6.25 0
42.25 6.25 0
43.25 6.25 0
44.25 6.25 0
45.25 6.25 0
46.25 6.25 0
47.25 6.25 0
48.25 6.25 0
49.25 6.25 0
0.75 6.75 0
1.75 6.75 0
2.75 6.75 0
3.75 6.75 0
4.75 6.75 0
5.75 6.75 0
6.75 6.75 0
7.75 6.75 0
8.75 6.75 0
9.75 6.75 0
10.75 6.75 0
11.75 6.75 0
12.75 6.75 0
13.75 6.75 0
14.75 6.75 0
15.75 6.75 0
16.75 6.75 0
17.75 6.75 0
18.75 6.75 0
19.75 6.75 0
20.75 6.75 0
21.75 6.75 0
22.75 6.75 0
23.75 6.75 0
24.75 6.75 0
25.75 6.75 0
26.75 6.75 0
27.75 6.75 0
28.75 6.75 0
29.75 6.75 0
30.75 6.75 0
31.75 6.75 0
32.75 6.75 0
33.75 6.75 0
34.75 6.75 0
35.75 6.75 0
36.75 6.75 0
37.75 6.75 0
38.75 6.75 0
39.75 6.75 0
40.75 6.75 0
41.75 6.75 0
42.75 6.75 0
43.75 6.75 0
44.75 6.75 0
45.75 6.75 0
46.75 6.75 0
47.75 6.75 0
48.75 6.75 0
49.75 6.75 0
0.25 7.25 0
1.25 7.25 0
2.25 7.25 0
3.25 7.25 0
4.25 7.25 0
5.25 7.25 0
6.25 7.25 0
7.25 7.25 0
8.25 7.25 0
9.25 7.25 0
10.25 7.25 0
11.25 7.25 0
12.25 7.25 0
13.25 7.25 0
14.25 7.25 0
15.25 7.25 0
16.25 7.25 0
17.25 7.25 0
18.25 7.25 0
19.25 7.25 0
20.25 7.25 0
21.25 7.25 0
22.25 7.25 0
23.25 7.25 0
24.25 7.25 0
25.25 7.25 0
26.25 7.25 0
27.25 7.25 0
28.25 7.25 0
29.25 7.25 0
30.25 7.25 0
31.25 7.25 0
32.25 7.25 0
33.25 7.25 0
34.25 7.25 0
35.25 7.25 0
36.25 7.25 0
37.25 7.25 0
38.25 7.25 0
39.25 7.25 0
40.25 7.25 0
41.25 7.25 0
42.25 7.25 0
43.25 7.25 0
44.25 7.25 0
45.25 7.25 0
46.25 7.25 0
47.25 7.25 0
48.25 7.25 0
49.25 7.25 0
0.75 7.75 0
1.75 7.75 0
2.75 7.75 0
3.75 7.75 0
4.75 7.75 0
5.75 7.75 0
6.75 7.75 0
7.75 7.75 0
8.75 7.75 0
9.75 7.75 0
10.75 7.75 0
11.75 7.75 0
12.75 7.75 0
13.75 7.75 0
14.75 7.75 0
15.75 7.75 0
16.75 7.75 0
17.75 7.75 0
18.75 7.75 0
19.75 7.75 0
20.75 7.75 0
21.75 7.75 0
[...]
POINT_DATA 5000
VECTORS velocity float
0.421647 0.421647 0.802763
0.483269 0.331815 0.810154
0.572775 0.218843 0.78996
0.665278 0.0829952 0.741969
0.742562 -0.0714234 0.665958
0.790571 -0.234834 0.565554
0.801574 -0.395659 0.448255
0.774377 -0.543669 0.323674
0.712756 -0.6718 0.201652
0.623466 -0.776534 0.0910227
0.514631 -0.857411 -0.00104771
0.394661 -0.916199 -0.0694384
0.271512 -0.955978 -0.111299
0.152121 -0.980286 -0.126087
0.0419874 -0.992437 -0.115355
-0.0550914 -0.995084 -0.0822921
-0.137082 -0.990071 -0.0311278
-0.203579 -0.978486 0.0334837
-0.255519 -0.960867 0.106976
-0.294812 -0.93743 0.18523
-0.323956 -0.908269 0.264764
-0.345694 -0.873493 0.342791
-0.362742 -0.8333 0.417168
-0.37759 -0.787997 0.486299
-0.392376 -0.737992 0.549008
-0.408815 -0.683771 0.604423
-0.428163 -0.625879 0.651883
-0.45121 -0.564895 0.690871
-0.478282 -0.501421 0.720988
-0.509268 -0.436063 0.741954
-0.543659 -0.369426 0.753631
-0.580608 -0.302102 0.756061
-0.619012 -0.234663 0.749504
-0.657608 -0.167668 0.734465
-0.695085 -0.101664 0.711703
-0.730208 -0.0371965 0.682212
-0.761931 0.0251868 0.647168
-0.789496 0.0849534 0.607848
-0.812496 0.141618 0.565504
-0.830894 0.194793 0.521221
-0.844983 0.244249 0.475759
-0.855294 0.289975 0.429402
-0.862449 0.33224 0.381836
-0.86696 0.371651 0.332049
-0.868947 0.40924 0.278306
-0.867714 0.44661 0.218199
-0.861056 0.486213 0.148927
-0.84416 0.531746 0.0681171
-0.80842 0.588103 -0.0243053
-0.742625 0.658378 -0.122663
0.403669 0.403669 0.821037
0.49288 0.297952 0.817493
0.59782 0.170013 0.783395
0.695898 0.02282 0.717778
0.76934 -0.137325 0.623905
0.806989 -0.299978 0.508707
0.804933 -0.454384 0.3816
0.76516 -0.59224 0.252552
0.693347 -0.708651 0.130708
0.596978 -0.801905 0.0237705
0.484158 -0.872763 -0.0622543
0.3629 -0.923639 -0.123267
0.240632 -0.957792 -0.157261
0.123744 -0.978608 -0.164361
0.0172044 -0.989044 -0.146614
-0.0756921 -0.991316 -0.107535
-0.153383 -0.986823 -0.0515155
-0.215891 -0.976273 0.0167748
-0.264525 -0.959897 0.0928672
-0.301496 -0.937676 0.172815
-0.329515 -0.909526 0.253343
-0.351453 -0.875414 0.331859
-0.370053 -0.835415 0.406378
-0.387737 -0.789721 0.475396
-0.406475 -0.738641 0.537761
-0.427708 -0.682591 0.592567
-0.452316 -0.622078 0.639085
-0.480619 -0.557696 0.676742
-0.512418 -0.490112 0.705137
-0.547061 -0.420038 0.724081
-0.583554 -0.348207 0.733633
-0.620683 -0.275341 0.734125
-0.657148 -0.202131 0.726154
-0.691679 -0.129246 0.710546
-0.723149 -0.0573527 0.688307
-0.750662 0.0128605 0.660561
-0.773625 0.0806733 0.628488
-0.791794 0.14536 0.59324
-0.805291 0.206249 0.555849
-0.814573 0.26281 0.517109
-0.820352 0.314748 0.477449
-0.823462 0.362089 0.436808
-0.824691 0.405254 0.39453
-0.824545 0.445119 0.349279
-0.822938 0.483079 0.299012
-0.818707 0.52118 0.24102
-0.808793 0.562338 0.172133
-0.7869 0.6106 0.0891942
-0.741662 0.670697 -0.0101772
-0.658378 0.742625 -0.122663
0.331815 0.483269 0.810154
0.398995 0.398995 0.825594
0.508917 0.28473 0.812362
0.624995 0.14792 0.766486
0.725524 -0.00671181 0.688164
0.794463 -0.170577 0.582865
0.823624 -0.332474 0.459461
0.812167 -0.482391 0.328152
0.764281 -0.613542 0.198597
0.686722 -0.722609 0.0790536
0.587178 -0.809108 -0.0237769
0.473452 -0.874568 -0.104761
0.353051 -0.921741 -0.160465
0.232869 -0.953896 -0.189351
0.118813 -0.974205 -0.191854
0.015435 -0.985288 -0.170205
-0.074335 -0.988985 -0.127999
-0.149265 -0.986343 -0.06962
-0.209683 -0.977769 0.000341893
-0.257172 -0.963248 0.077557
-0.294171 -0.942561 0.158248
-0.323561 -0.915446 0.239305
-0.348302 -0.881699 0.318266
-0.371132 -0.841223 0.3932
-0.394351 -0.794051 0.462568
-0.419676 -0.74037 0.525094
-0.448148 -0.680538 0.579682
-0.480105 -0.615117 0.625405
-0.515218 -0.544877 0.661559
-0.552603 -0.470775 0.68775
-0.59099 -0.393886 0.703977
-0.628927 -0.315307 0.710656
-0.664974 -0.236069 0.708577
-0.697862 -0.157091 0.698793
-0.726587 -0.0791826 0.682496
-0.750464 -0.00309766 0.660904
-0.769148 0.0704174 0.63518
-0.782643 0.140602 0.606384
-0.791295 0.206717 0.575431
-0.795758 0.268119 0.54303
-0.796919 0.324374 0.50961
-0.795785 0.375355 0.475221
-0.793329 0.421337 0.439436
-0.7903 0.463053 0.401258
-0.786976 0.501743 0.359059
-0.782824 0.539212 0.310543
-0.775927 0.577975 0.252748
-0.761925 0.621538 0.182101
-0.732028 0.674647 0.0947993
-0.670697 0.741662 -0.0101772
0.297952 0.49288 0.817493
0.402608 0.402608 0.822079
0.530672 0.282652 0.799059
0.655408 0.139169 0.742342
0.756552 -0.0209802 0.653597
0.820535 -0.187175 0.540081
0.842246 -0.347895 0.411815
0.823438 -0.494055 0.279033
0.769809 -0.620234 0.15068
0.688615 -0.724326 0.0340773
0.587411 -0.806683 -0.0648878
0.473591 -0.869277 -0.141663
0.35421 -0.914995 -0.193185
0.235768 -0.94701 -0.218139
0.123859 -0.968259 -0.217103
0.0227703 -0.981053 -0.192398
-0.0648203 -0.98691 -0.14767
-0.137944 -0.986585 -0.0873038
-0.197209 -0.980234 -0.0158331
-0.244478 -0.967637 0.0625214
-0.282443 -0.948395 0.144124
-0.314183 -0.922068 0.226006
-0.342764 -0.888257 0.305797
-0.370912 -0.846655 0.381576
-0.400758 -0.797096 0.451698
-0.43366 -0.739627 0.514676
-0.470101 -0.674595 0.569146
-0.50969 -0.602733 0.613945
-0.551289 -0.525184 0.648276
-0.593259 -0.443421 0.671879
-0.633777 -0.359077 0.685121
-0.671141 -0.273728 0.688943
-0.703988 -0.188726 0.684677
-0.73139 -0.105148 0.673804
-0.75286 -0.0238431 0.657748
-0.768312 0.0544576 0.637755
-0.778015 0.129054 0.614848
-0.782557 0.199251 0.589834
-0.7828 0.26441 0.563304
-0.779812 0.324048 0.535618
-0.774761 0.377954 0.506849
-0.768784 0.426292 0.476704
-0.762812 0.469673 0.444439
-0.757373 0.509196 0.408785
-0.752336 0.546485 0.367892
-0.74651 0.583767 0.319279
-0.736901 0.624086 0.259797
-0.717151 0.671682 0.185841
-0.674647 0.732028 0.0947993
-0.588103 0.80842 -0.0243053
0.218843 0.572775 0.78996
0.28473 0.508917 0.812362
0.414427 0.414427 0.810248
0.557269 0.289943 0.778065
0.688206 0.141112 0.71166
0.78851 -0.022967 0.614594
0.847486 -0.190271 0.495545
0.862953 -0.34947 0.364942
0.838659 -0.492549 0.23248
0.781152 -0.615247 0.106177
0.697728 -0.716324 -0.00747883
0.595605 -0.796627 -0.103149
0.481772 -0.858326 -0.176558
0.362963 -0.904293 -0.224749
0.245477 -0.93755 -0.246458
0.134775 -0.960791 -0.242316
0.0350199 -0.976046 -0.214728
-0.0512785 -0.98455 -0.167426
-0.123391 -0.986803 -0.104851
-0.182222 -0.982752 -0.0315328
-0.229955 -0.971998 0.048379
-0.269582 -0.953976 0.131363
-0.304415 -0.928059 0.214565
-0.33764 -0.89363 0.295677
-0.371936 -0.850137 0.372733
-0.409173 -0.797193 0.443916
-0.450188 -0.734727 0.507451
-0.494698 -0.663183 0.56166
-0.541382 -0.583665 0.605178
-0.588192 -0.497936 0.637252
-0.632803 -0.408205 0.657973
-0.673094 -0.31676 0.668287
-0.707475 -0.225606 0.669762
-0.735013 -0.136271 0.664218
-0.755384 -0.0498138 0.653386
-0.76875 0.0330157 0.638696
-0.775651 0.111603 0.621217
-0.776923 0.185362 0.60169
-0.773644 0.25373 0.5806
-0.767066 0.316247 0.558209
-0.758525 0.372676 0.534558
-0.749314 0.423111 0.509417
-0.740529 0.468068 0.482212
-0.732896 0.508528 0.451955
-0.726562 0.545959 0.417177
-0.720816 0.582356 0.37588
-0.713574 0.620378 0.325489
-0.700289 0.663653 0.262983
-0.671682 0.717151 0.185841
-0.6106 0.7869 0.0891942
0.170013 0.59782 0.783395
0.282652 0.530672 0.799059
0.433135 0.433135 0.790435
0.587598 0.304626 0.749621
0.72226 0.151557 0.674812
0.820477 -0.0150192 0.571483
0.874613 -0.182383 0.44921
0.885033 -0.339827 0.318173
0.856829 -0.480433 0.187155
0.796837 -0.600877 0.0632247
0.712065 -0.700487 -0.0477621
0.609299 -0.780352 -0.14073
0.495195 -0.842666 -0.211412
0.376334 -0.890193 -0.256766
0.258993 -0.925762 -0.275478
0.148659 -0.951818 -0.268224
0.0494695 -0.970119 -0.237534
-0.0362046 -0.981636 -0.187297
-0.107893 -0.986639 -0.122073
-0.16685 -0.984888 -0.0464302
-0.21564 -0.975827 0.0355255
-0.257604 -0.958723 0.120372
-0.296313 -0.932753 0.205353
-0.33505 -0.897046 0.288183
-0.376367 -0.85077 0.366795
-0.421702 -0.793314 0.439114
-0.471134 -0.724575 0.503014
-0.523351 -0.645292 0.556508
-0.575934 -0.557231 0.598159
-0.625953 -0.463053 0.627507
-0.670674 -0.365831 0.645263
-0.7081 -0.26843 0.6531
-0.73717 -0.173064 0.653168
-0.757668 -0.0811829 0.647571
-0.769997 0.00634538 0.638016
-0.774972 0.0889634 0.625703
-0.773691 0.166209 0.611373
-0.767459 0.237637 0.595429
-0.757727 0.302859 0.578036
-0.746009 0.361657 0.559174
-0.73376 0.414098 0.538627
-0.722241 0.460636 0.515929
-0.712352 0.502157 0.490298
-0.704462 0.540005 0.460573
-0.698193 0.575989 0.425163
-0.692072 0.612452 0.382019
-0.682803 0.652479 0.328712
-0.663653 0.700289 0.262983
-0.621538 0.761925 0.182101
-0.531746 0.84416 0.0681171
0.0829952 0.665278 0.741969
0.14792 0.624995 0.766486
0.289943 0.557269 0.778065
0.457249 0.457249 0.762789
0.620136 0.32512 0.713952
0.756155 0.168936 0.63221
0.851318 0.00119964 0.524648
0.900984 -0.165318 0.401121
0.907525 -0.320828 0.271048
0.876753 -0.459461 0.142129
0.815338 -0.578619 0.0205937
0.729791 -0.677971 -0.0880888
0.626445 -0.758671 -0.178843
0.51173 -0.822815 -0.247199
0.392235 -0.872987 -0.289905
0.274379 -0.911782 -0.305563
0.16379 -0.941376 -0.294932
0.0646239 -0.963243 -0.260742
-0.0209005 -0.978094 -0.20711
-0.0926295 -0.985984 -0.138765
-0.152237 -0.9865 -0.0603423
-0.20273 -0.978938 0.0240915
-0.247841 -0.962397 0.111208
-0.291389 -0.93582 0.198328
-0.336688 -0.898037 0.283143
-0.385999 -0.847907 0.363399
-0.440074 -0.784633 0.436677
-0.497906 -0.70826 0.500458
-0.556883 -0.620147 0.552539
-0.613439 -0.523089 0.591667
-0.664032 -0.420861 0.618011
-0.70601 -0.317338 0.633125
-0.738006 -0.215678 0.639398
-0.759826 -0.117965 0.639334
-0.772097 -0.0253419 0.634999
-0.775927 0.0616158 0.627806
-0.772698 0.142553 0.61856
-0.763966 0.217155 0.607619
-0.751397 0.285133 0.595065
-0.736698 0.346324 0.580807
-0.721505 0.400803 0.564612
-0.70725 0.448993 0.546079
-0.695005 0.49172 0.524575
-0.685329 0.530231 0.499179
-0.678095 0.56619 0.468632
-0.672256 0.601695 0.431319
-0.665359 0.639397 0.385316
-0.652479 0.682803 0.328712
-0.624086 0.736901 0.259797
-0.562338 0.808793 0.172133
0.02282 0.695898 0.717778
0.139169 0.655408 0.742342
0.304626 0.587598 0.749621
0.48514 0.48514 0.727515
0.65325 0.349898 0.671443
0.788496 0.191784 0.584375
0.879934 0.0241657 0.474481
0.925637 -0.140666 0.351296
0.929384 -0.294021 0.223152
0.897159 -0.431003 0.0966595
0.835138 -0.549576 -0.0226045
0.749205 -0.649592 -0.129314
0.645265 -0.732144 -0.21817
0.529641 -0.799142 -0.284346
0.409078 -0.85292 -0.32432
0.290263 -0.895782 -0.336633
0.179029 -0.92959 -0.322196
0.0795514 -0.955511 -0.284024
-0.00615947 -0.973987 -0.226522
-0.0783451 -0.984862 -0.154622
-0.139175 -0.987571 -0.0730277
-0.192152 -0.981262 0.0142372
-0.241408 -0.964842 0.103938
-0.290967 -0.936973 0.193441
-0.344038 -0.896127 0.280348
-0.402334 -0.840832 0.362116
-0.465545 -0.770235 0.435897
-0.531196 -0.68485 0.49881
-0.595196 -0.587119 0.548665
-0.653041 -0.481221 0.584777
-0.701133 -0.372064 0.60826
-0.737532 -0.264003 0.62157
-0.761926 -0.160048 0.627578
-0.775131 -0.0618384 0.628767
-0.778569 0.0299127 0.626846
-0.77394 0.114912 0.622746
-0.763081 0.19297 0.616822
-0.747904 0.263912 0.609089
-0.730333 0.327648 0.599383
-0.712205 0.38429 0.587439
-0.695138 0.43426 0.572889
-0.680382 0.478353 0.555211
-0.668676 0.517752 0.533672
-0.660102 0.554013 0.507282
-0.653918 0.589052 0.474772
-0.648248 0.625192 0.434637
-0.639397 0.665359 0.385316
-0.620378 0.713574 0.325489
-0.577975 0.775927 0.252748
-0.486213 0.861056 0.148927
-0.0714234 0.742562 0.665958
-0.0067118 0.725524 0.688164
0.141112 0.688206 0.71166
0.32512 0.620136 0.713952
0.515155 0.515155 0.685004
0.685395 0.377472 0.622694
0.818055 0.218691 0.53194
0.905367 0.0524534 0.421379
0.947674 -0.109845 0.299746
0.949581 -0.260713 0.174139
0.916808 -0.396161 0.0501862
0.854808 -0.514604 -0.0669725
0.768773 -0.615978 -0.171931
0.664233 -0.701226 -0.258993
0.547514 -0.771993 -0.322885
0.42564 -0.83028 -0.359812
0.305649 -0.878023 -0.368314
0.193593 -0.916701 -0.349544
0.0936234 -0.947133 -0.306877
0.00745861 -0.96948 -0.245058
-0.0656247 -0.983389 -0.16923
-0.128358 -0.988151 -0.0841538
-0.184774 -0.982761 0.00620357
-0.239382 -0.965896 0.0986931
-0.296313 -0.935862 0.190685
-0.358442 -0.8907 0.279596
-0.426548 -0.82865 0.362485
-0.498769 -0.749068 0.436035
-0.570808 -0.653458 0.497163
-0.637175 -0.545873 0.544086
-0.693013 -0.432065 0.577108
-0.735445 -0.317765 0.598453
-0.763812 -0.20725 0.61126
-0.779044 -0.102949 0.61846
-0.782893 -0.00588334 0.622128
-0.777423 0.0836411 0.623392
-0.764794 0.16554 0.622644
-0.747199 0.239757 0.619847
-0.72681 0.306285 0.614766
-0.705692 0.365289 0.607093
-0.685675 0.417215 0.596474
-0.668204 0.462852 0.58247
-0.654199 0.50335 0.564501
-0.643929 0.540195 0.541798
-0.636886 0.57517 0.513376
-0.631596 0.610359 0.478068
-0.625192 0.648248 0.434637
-0.612452 0.692072 0.382019
-0.583767 0.74651 0.319279
-0.52118 0.818707 0.24102
-0.137325 0.76934 0.623905
-0.0209802 0.756552 0.653597
0.151557 0.72226 0.674812
0.349898 0.65325 0.671443
0.545729 0.545729 0.635893
0.715253 0.406463 0.568508
0.843862 0.248353 0.475623
0.926847 0.0847618 0.365745
0.966305 -0.0741092 0.246501
0.967155 -0.222027 0.123758
0.934535 -0.355863 0.00233772
0.87303 -0.474431 -0.112843
0.787125 -0.577694 -0.216111
0.682036 -0.666386 -0.301257
0.564191 -0.741795 -0.36253
0.440974 -0.805483 -0.395902
0.319802 -0.858909 -0.400002
0.206919 -0.903087 -0.376323
0.106367 -0.938437 -0.328666
0.0194829 -0.964834 -0.262138
-0.0550221 -0.981742 -0.182086
-0.120493 -0.988319 -0.0933099
-0.181497 -0.983392 0.000294634
-0.242866 -0.965333 0.0956474
-0.308661 -0.931991 0.190057
-0.381061 -0.880926 0.280647
-0.459361 -0.810247 0.363987
-0.539603 -0.720015 0.436357
-0.615527 -0.61342 0.494816
-0.680768 -0.496569 0.538492
-0.731057 -0.376585 0.568981
-0.765021 -0.259364 0.589469
-0.78356 -0.1485 0.603309
-0.788755 -0.0455722 0.613016
-0.783084 0.048991 0.619983
-0.769085 0.135177 0.624689
-0.749272 0.213043 0.627061
-0.726105 0.282675 0.626791
-0.701914 0.344299 0.623518
-0.678771 0.398396 0.616887
-0.65834 0.445776 0.606525
-0.641736 0.487582 0.591979
-0.629409 0.525258 0.572667
-0.621049 0.560502 0.547846
-0.615468 0.595225 0.516631
-0.610359 0.631596 0.478068
-0.601695 0.672256 0.431319
-0.582356 0.720816 0.37588
-0.539212 0.782824 0.310543
-0.44661 0.867714 0.218199
-0.234834 0.790571 0.565554
-0.170577 0.794463 0.582865
-0.022967 0.78851 0.614594
0.168936 0.756155 0.63221
0.377472 0.685395 0.622694
0.575492 0.575492 0.58105
0.741801 0.43567 0.509827
0.865228 0.279615 0.416169
0.943804 0.11994 0.307974
0.980859 -0.0345623 0.191627
0.981229 -0.17895 0.0718752
0.94926 -0.31095 -0.0470594
0.8886 -0.429765 -0.160286
0.803045 -0.535365 -0.26173
0.69756 -0.628213 -0.344612
0.578738 -0.709137 -0.402725
0.454354 -0.779123 -0.431891
0.332183 -0.839017 -0.430936
0.218583 -0.88927 -0.401772
0.117392 -0.929862 -0.348676
0.0294674 -0.960382 -0.277126
-0.0471102 -0.980135 -0.192654
-0.116332 -0.988156 -0.100073
-0.183282 -0.983055 -0.00320088
-0.252999 -0.962799 0.0949208
-0.329178 -0.924654 0.19146
-0.412754 -0.865716 0.283144
-0.500833 -0.784341 0.366027
-0.586924 -0.682079 0.436222
-0.663132 -0.56456 0.491455
-0.72328 -0.44 0.532227
-0.764751 -0.316193 0.561407
-0.788141 -0.198372 0.582651
-0.795819 -0.0890215 0.598955
-0.790732 0.0111315 0.612061
-0.775861 0.102093 0.622589
-0.754096 0.184027 0.630455
-0.728226 0.257119 0.635277
-0.700884 0.321662 0.636628
-0.674422 0.378185 0.634138
-0.650758 0.427528 0.627482
-0.631229 0.470851 0.616319
-0.616474 0.509587 0.600234
-0.60636 0.545379 0.578696
-0.599918 0.580025 0.551062
-0.595225 0.615468 0.516631
-0.589052 0.653918 0.474772
-0.575989 0.698193 0.425163
-0.546485 0.752336 0.367892
-0.483079 0.822938 0.299012
-0.299978 0.806989 0.508707
-0.187175 0.820535 0.540081
-0.0150192 0.820477 0.571483
0.191784 0.788496 0.584375
0.406463 0.715253 0.568508
0.603341 0.603341 0.521498
0.76434 0.464119 0.447636
0.881727 0.311508 0.35429
0.955842 0.156989 0.248438
0.990784 0.00781065 0.135229
0.991023 -0.132411 0.0184798
0.960006 -0.262276 -0.097978
0.900444 -0.381404 -0.209122
0.815486 -0.48977 -0.308396
0.709891 -0.5875 -0.388457
0.590435 -0.674828 -0.442712
0.465258 -0.751998 -0.466941
0.342413 -0.819091 -0.460264
0.228269 -0.875897 -0.425086
0.126355 -0.921922 -0.366188
0.0369669 -0.956492 -0.289407
-0.0424992 -0.978783 -0.200442
-0.116693 -0.987698 -0.104098
-0.19116 -0.98155 -0.00411288
-0.270936 -0.95775 0.0964795
-0.358869 -0.912871 0.194628
-0.453873 -0.843722 0.286587
-0.550112 -0.749636 0.367997
-0.638532 -0.634686 0.435259
-0.710638 -0.50742 0.487358
-0.761845 -0.377572 0.526338
-0.791967 -0.252535 0.555891
-0.803533 -0.136199 0.579469
-0.800015 -0.0298592 0.599236
-0.784921 0.0664131 0.616026
-0.76158 0.152876 0.629782
-0.733156 0.229823 0.64005
-0.702626 0.297621 0.646327
-0.672669 0.356854 0.648207
-0.645496 0.408403 0.6454
-0.6227 0.453461 0.637666
-0.605129 0.493473 0.624743
-0.592829 0.53006 0.606292
-0.585013 0.564946 0.58189
-0.580025 0.599918 0.551062
-0.57517 0.636886 0.513376
-0.56619 0.678095 0.468632
-0.545959 0.726562 0.417177
-0.501743 0.786976 0.359059
-0.40924 0.868947 0.278306
-0.395659 0.801574 0.448255
-0.332474 0.823624 0.459461
-0.190271 0.847486 0.495545
0.00119964 0.851318 0.524648
0.218691 0.818055 0.53194
0.43567 0.741801 0.509827
0.62847 0.62847 0.458312
0.782468 0.491074 0.382872
0.893153 0.343244 0.290621
0.962711 0.195047 0.18747
0.995633 0.0520966 0.0774589
0.995859 -0.0833435 -0.0363066
0.965923 -0.210793 -0.150194
0.907653 -0.330328 -0.258939
0.823605 -0.441927 -0.355493
0.718347 -0.545296 -0.432008
0.598798 -0.639915 -0.481612
0.473366 -0.7251 -0.500155
0.350265 -0.800009 -0.487135
0.235752 -0.863685 -0.445498
0.132948 -0.915157 -0.380541
0.0415201 -0.953519 -0.298459
-0.0418553 -0.977847 -0.205094
-0.122477 -0.986878 -0.10522
-0.206228 -0.978501 -0.00248318
-0.297783 -0.949374 0.10007
-0.398405 -0.895339 0.199103
-0.503994 -0.813428 0.290386
-0.605245 -0.705112 0.369454
-0.691298 -0.577998 0.433618
-0.75477 -0.443319 0.48352
-0.793915 -0.311075 0.522429
-0.811124 -0.187217 0.5541
-0.810415 -0.0740312 0.58116
-0.795932 0.028158 0.604731
-0.771533 0.119669 0.624833
-0.740815 0.200909 0.64096
-0.707142 0.272337 0.65252
-0.67356 0.334596 0.659062
-0.642622 0.38862 0.660312
-0.616215 0.435647 0.656118
-0.595434 0.477151 0.646363
-0.580514 0.514758 0.630894
-0.570837 0.55015 0.609491
-0.564946 0.585013 0.58189
-0.560502 0.621049 0.547846
-0.554013 0.660102 0.507282
-0.540005 0.704462 0.460573
-0.509196 0.757373 0.408785
-0.445119 0.824545 0.349279
-0.454384 0.804933 0.3816
-0.347895 0.842246 0.411815
-0.182383 0.874613 0.44921
0.0241657 0.879934 0.474481
0.248353 0.843862 0.475623
0.464119 0.76434 0.447636
0.65036 0.65036 0.39251
0.796021 0.516016 0.316351
0.899468 0.374196 0.225687
0.964278 0.233346 0.125368
0.995073 0.0973991 0.0185229
0.995199 -0.0327626 -0.0922295
0.966346 -0.157622 -0.203301
0.909553 -0.277754 -0.309139
0.826834 -0.393119 -0.402247
0.722534 -0.502898 -0.474383
0.603604 -0.605643 -0.518516
0.478571 -0.699549 -0.530661
0.355653 -0.78271 -0.510761
0.240875 -0.853361 -0.462336
0.136869 -0.910065 -0.391214
0.0426219 -0.951737 -0.303942
-0.0459275 -0.977372 -0.206483
-0.134677 -0.985465 -0.103538
-0.229628 -0.973278 0.00138608
-0.334496 -0.936505 0.105218
-0.447883 -0.87044 0.204291
-0.561635 -0.773377 0.294032
-0.663162 -0.650405 0.370391
-0.741594 -0.513095 0.432172
-0.79252 -0.374154 0.481581
-0.817576 -0.242352 0.522337
-0.821242 -0.121608 0.55747
-0.808432 -0.012798 0.588451
-0.783661 0.0843665 0.615433
-0.75104 0.170409 0.637886
-0.714373 0.245894 0.655139
-0.677113 0.31154 0.666679
-0.6422 0.368342 0.672238
-0.611863 0.417591 0.671745
-0.58748 0.460814 0.66522
-0.569507 0.499658 0.65269
-0.557495 0.535791 0.634135
-0.55015 0.570837 0.609491
-0.545379 0.60636 0.578696
-0.540195 0.643929 0.541798
-0.530231 0.685329 0.499179
-0.508528 0.732896 0.451955
-0.463053 0.7903 0.401258
-0.371651 0.86696 0.332049
-0.543669 0.774377 0.323674
-0.482391 0.812167 0.328152
-0.34947 0.862953 0.364942
-0.165318 0.900984 0.401121
0.0524534 0.905367 0.421379