# vtk DataFile Version 2.0
tmp/0.000.00-10.000.000.001.006.vtk
ASCII
DATASET UNSTRUCTURED_GRID
POINTS 5100 float
0.5 0 0
1.5 0 0
2.5 0 0
3.5 0 0
4.5 0 0
5.5 0 0
6.5 0 0
7.5 0 0
8.5 0 0
9.5 0 0
10.5 0 0
11.5 0 0
12.5 0 0
13.5 0 0
14.5 0 0
15.5 0 0
16.5 0 0
17.5 0 0
18.5 0 0
19.5 0 0
20.5 0 0
21.5 0 0
22.5 0 0
23.5 0 0
24.5 0 0
25.5 0 0
26.5 0 0
27.5 0 0
28.5 0 0
29.5 0 0
30.5 0 0
31.5 0 0
32.5 0 0
33.5 0 0
34.5 0 0
35.5 0 0
36.5 0 0
37.5 0 0
38.5 0 0
39.5 0 0
40.5 0 0
41.5 0 0
42.5 0 0
43.5 0 0
44.5 0 0
45.5 0 0
46.5 0 0
47.5 0 0
48.5 0 0
49.5 0 0
0 0.5 0
1 0.5 0
2 0.5 0
3 0.5 0
4 0.5 0
5 0.5 0
6 0.5 0
7 0.5 0
8 0.5 0
9 0.5 0
10 0.5 0
11 0.5 0
12 0.5 0
13 0.5 0
14 0.5 0
15 0.5 0
16 0.5 0
17 0.5 0
18 0.5 0
19 0.5 0
20 0.5 0
21 0.5 0
22 0.5 0
23 0.5 0
24 0.5 0
25 0.5 0
26 0.5 0
27 0.5 0
28 0.5 0
29 0.5 0
30 0.5 0
31 0.5 0
32 0.5 0
33 0.5 0
34 0.5 0
35 0.5 0
36 0.5 0
37 0.5 0
38 0.5 0
39 0.5 0
40 0.5 0
41 0.5 0
42 0.5 0
43 0.5 0
44 0.5 0
45 0.5 0
46 0.5 0
47 0.5 0
48 0.5 0
49 0.5 0
50 0.5 0
0.5 1 0
1.5 1 0
2.5 1 0
3.5 1 0
4.5 1 0
5.5 1 0
6.5 1 0
7.5 1 0
8.5 1 0
9.5 1 0
10.5 1 0
11.5 1 0
12.5 1 0
13.5 1 0
14.5 1 0
15.5 1 0
16.5 1 0
17.5 1 0
18.5 1 0
19.5 1 0
20.5 1 0
21.5 1 0
22.5 1 0
23.5 1 0
24.5 1 0
25.5 1 0
26.5 1 0
27.5 1 0
28.5 1 0
29.5 1 0
30.5 1 0
31.5 1 0
32.5 1 0
33.5 1 0
34.5 1 0
35.5 1 0
36.5 1 0
37.5 1 0
38.5 1 0
39.5 1 0
40.5 1 0
41.5 1 0
42.5 1 0
43.5 1 0
44.5 1 0
45.5 1 0
46.5 1 0
47.5 1 0
48.5 1 0
49.5 1 0
0 1.5 0
1 1.5 0
2 1.5 0
3 1.5 0
4 1.5 0
5 1.5 0
6 1.5 0
7 1.5 0
8 1.5 0
9 1.5 0
10 1.5 0
11 1.5 0
12 1.5 0
13 1.5 0
14 1.5 0
15 1.5 0
16 1.5 0
17 1.5 0
18 1.5 0
19 1.5 0
20 1.5 0
21 1.5 0
22 1.5 0
23 1.5 0
24 1.5 0
25 1.5 0
26 1.5 0
27 1.5 0
28 1.5 0
29 1.5 0
30 1.5 0
31 1.5 0
32 1.5 0
33 1.5 0
34 1.5 0
35 1.5 0
36 1.5 0
37 1.5 0
38 1.5 0
39 1.5 0
40 1.5 0
41 1.5 0
42 1.5 0
43 1.5 0
44 1.5 0
45 1.5 0
46 1.5 0
47 1.5 0
48 1.5 0
49 1.5 0
50 1.5 0
0.5 2 0
1.5 2 0
2.5 2 0
3.5 2 0
4.5 2 0
5.5 2 0
6.5 2 0
7.5 2 0
8.5 2 0
9.5 2 0
10.5 2 0
11.5 2 0
12.5 2 0
13.5 2 0
14.5 2 0
15.5 2 0
16.5 2 0
17.5 2 0
18.5 2 0
19.5 2 0
20.5 2 0
21.5 2 0
22.5 2 0
23.5 2 0
24.5 2 0
25.5 2 0
26.5 2 0
27.5 2 0
28.5 2 0
29.5 2 0
30.5 2 0
31.5 2 0
32.5 2 0
33.5 2 0
34.5 2 0
35.5 2 0
36.5 2 0
37.5 2 0
38.5 2 0
39.5 2 0
40.5 2 0
41.5 2 0
42.5 2 0
43.5 2 0
44.5 2 0
45.5 2 0
46.5 2 0
47.5 2 0
48.5 2 0
49.5 2 0
0 2.5 0
1 2.5 0
2 2.5 0
3 2.5 0
4 2.5 0
5 2.5 0
6 2.5 0
7 2.5 0
8 2.5 0
9 2.5 0
10 2.5 0
11 2.5 0
12 2.5 0
13 2.5 0
14 2.5 0
15 2.5 0
16 2.5 0
17 2.5 0
18 2.5 0
19 2.5 0
20 2.5 0
21 2.5 0
22 2.5 0
23 2.5 0
24 2.5 0
25 2.5 0
26 2.5 0
27 2.5 0
28 2.5 0
29 2.5 0
30 2.5 0
31 2.5 0
32 2.5 0
33 2.5 0
34 2.5 0
35 2.5 0
36 2.5 0
37 2.5 0
38 2.5 0
39 2.5 0
40 2.5 0
41 2.5 0
42 2.5 0
43 2.5 0
44 2.5 0
45 2.5 0
46 2.5 0
47 2.5 0
48 2.5 0
49 2.5 0
50 2.5 0
0.5 3 0
1.5 3 0
2.5 3 0
3.5 3 0
4.5 3 0
5.5 3 0
6.5 3 0
7.5 3 0
8.5 3 0
9.5 3 0
10.5 3 0
11.5 3 0
12.5 3 0
13.5 3 0
14.5 3 0
15.5 3 0
16.5 3 0
17.5 3 0
18.5 3 0
19.5 3 0
20.5 3 0
21.5 3 0
22.5 3 0
23.5 3 0
24.5 3 0
25.5 3 0
26.5 3 0
27.5 3 0
28.5 3 0
29.5 3 0
30.5 3 0
31.5 3 0
32.5 3 0
33.5 3 0
34.5 3 0
35.5 3 0
36.5 3 0
37.5 3 0
38.5 3 0
39.5 3 0
40.5 3 0
41.5 3 0
42.5 3 0
43.5 3 0
44.5 3 0
45.5 3 0
46.5 3 0
47.5 3 0
48.5 3 0
49.5 3 0
0 3.5 0
1 3.5 0
2 3.5 0
3 3.5 0
4 3.5 0
5 3.5 0
6 3.5 0
7 3.5 0
8 3.5 0
9 3.5 0
10 3.5 0
11 3.5 0
12 3.5 0
13 3.5 0
14 3.5 0
15 3.5 0
16 3.5 0
17 3.5 0
18 3.5 0
19 3.5 0
20 3.5 0
21 3.5 0
22 3.5 0
23 3.5 0
24 3.5 0
25 3.5 0
26 3.5 0
27 3.5 0
28 3.5 0
29 3.5 0
30 3.5 0
31 3.5 0
32 3.5 0
33 3.5 0
34 3.5 0
35 3.5 0
36 3.5 0
37 3.5 0
38 3.5 0
39 3.5 0
40 3.5 0
41 3.5 0
42 3.5 0
43 3.5 0
44 3.5 0
45 3.5 0
46 3.5 0
47 3.5 0
48 3.5 0
49 3.5 0
50 3.5 0
0.5 4 0
1.5 4 0
2.5 4 0
3.5 4 0
4.5 4 0
5.5 4 0
6.5 4 0
7.5 4 0
8.5 4 0
9.5 4 0
10.5 4 0
11.5 4 0
12.5 4 0
13.5 4 0
14.5 4 0
15.5 4 0
16.5 4 0
17.5 4 0
18.5 4 0
19.5 4 0
20.5 4 0
21.5 4 0
22.5 4 0
23.5 4 0
24.5 4 0
25.5 4 0
26.5 4 0
27.5 4 0
28.5 4 0
29.5 4 0
30.5 4 0
31.5 4 0
32.5 4 0
33.5 4 0
34.5 4 0
35.5 4 0
36.5 4 0
37.5 4 0
38.5 4 0
39.5 4 0
40.5 4 0
41.5 4 0
42.5 4 0
43.5 4 0
44.5 4 0
45.5 4 0
46.5 4 0
47.5 4 0
48.5 4 0
49.5 4 0
0 4.5 0
1 4.5 0
2 4.5 0
3 4.5 0
4 4.5 0
5 4.5 0
6 4.5 0
7 4.5 0
8 4.5 0
9 4.5 0
10 4.5 0
11 4.5 0
12 4.5 0
13 4.5 0
14 4.5 0
15 4.5 0
16 4.5 0
17 4.5 0
18 4.5 0
19 4.5 0
20 4.5 0
21 4.5 0
22 4.5 0
23 4.5 0
24 4.5 0
25 4.5 0
26 4.5 0
27 4.5 0
28 4.5 0
29 4.5 0
30 4.5 0
31 4.5 0
32 4.5 0
33 4.5 0
34 4.5 0
35 4.5 0
36 4.5 0
37 4.5 0
38 4.5 0
39 4.5 0
40 4.5 0
41 4.5 0
42 4.5 0
43 4.5 0
44 4.5 0
45 4.5 0
46 4.5 0
47 4.5 0
48 4.5 0
49 4.5 0
50 4.5 0
0.5 5 0
1.5 5 0
2.5 5 0
3.5 5 0
4.5 5 0
5.5 5 0
6.5 5 0
7.5 5 0
8.5 5 0
9.5 5 0
10.5 5 0
11.5 5 0
12.5 5 0
13.5 5 0
14.5 5 0
15.5 5 0
16.5 5 0
17.5 5 0
18.5 5 0
19.5 5 0
20.5 5 0
21.5 5 0
22.5 5 0
23.5 5 0
24.5 5 0
25.5 5 0
26.5 5 0
27.5 5 0
28.5 5 0
29.5 5 0
30.5 5 0
31.5 5 0
32.5 5 0
33.5 5 0
34.5 5 0
35.5 5 0
36.5 5 0
37.5 5 0
38.5 5 0
39.5 5 0
40.5 5 0
41.5 5 0
42.5 5 0
43.5 5 0
44.5 5 0
45.5 5 0
46.5 5 0
47.5 5 0
48.5 5 0
49.5 5 0
0 5.5 0
1 5.5 0
2 5.5 0
3 5.5 0
4 5.5 0
5 5.5 0
6 5.5 0
7 5.5 0
8 5.5 0
9 5.5 0
10 5.5 0
11 5.5 0
12 5.5 0
13 5.5 0
14 5.5 0
15 5.5 0
16 5.5 0
17 5.5 0
18 5.5 0
19 5.5 0
20 5.5 0
21 5.5 0
22 5.5 0
23 5.5 0
24 5.5 0
25 5.5 0
26 5.5 0
27 5.5 0
28 5.5 0
29 5.5 0
30 5.5 0
31 5.5 0
32 5.5 0
33 5.5 0
34 5.5 0
35 5.5 0
36 5.5 0
37 5.5 0
38 5.5 0
39 5.5 0
40 5.5 0
41 5.5 0
42 5.5 0
43 5.5 0
44 5.5 0
45 5.5 0
46 5.5 0
47 5.5 0
48 5.5 0
49 5.5 0
50 5.5 0
0.5 6 0
1.5 6 0
2.5 6 0
3.5 6 0
4.5 6 0
5.5 6 0
6.5 6 0
7.5 6 0
8.5 6 0
9.5 6 0
10.5 6 0
11.5 6 0
12.5 6 0
13.5 6 0
14.5 6 0
15.5 6 0
16.5 6 0
17.5 6 0
18.5 6 0
19.5 6 0
20.5 6 0
21.5 6 0
22.5 6 0
23.5 6 0
24.5 6 0
25.5 6 0
26.5 6 0
27.5 6 0
28.5 6 0
29.5 6 0
30.5 6 0
31.5 6 0
32.5 6 0
33.5 6 0
34.5 6 0
35.5 6 0
36.5 6 0
37.5 6 0
38.5 6 0
39.5 6 0
40.5 6 0
41.5 6 0
42.5 6 0
43.5 6 0
44.5 6 0
45.5 6 0
46.5 6 0
47.5 6 0
48.5 6 0
49.5 6 0
0 6.5 0
1 6.5 0
2 6.5 0
3 6.5 0
4 6.5 0
5 6.5 0
6 6.5 0
7 6.5 0
8 6.5 0
9 6.5 0
10 6.5 0
11 6.5 0
12 6.5 0
13 6.5 0
14 6.5 0
15 6.5 0
16 6.5 0
17 6.5 0
18 6.5 0
19 6.5 0
20 6.5 0
21 6.5 0
22 6.5 0
23 6.5 0
24 6.5 0
25 6.5 0
26 6.5 0
27 6.5 0
28 6.5 0
29 6.5 0
30 6.5 0
31 6.5 0
32 6.5 0
33 6.5 0
34 6.5 0
35 6.5 0
36 6.5 0
37 6.5 0
38 6.5 0
39 6.5 0
40 6.5 0
41 6.5 0
42 6.5 0
43 6.5 0
44 6.5 0
45 6.5 0
46 6.5 0
47 6.5 0
48 6.5 0
49 6.5 0
50 6.5 0
0.5 7 0
1.5 7 0
2.5 7 0
3.5 7 0
4.5 7 0
5.5 7 0
6.5 7 0
7.5 7 0
8.5 7 0
9.5 7 0
10.5 7 0
11.5 7 0
12.5 7 0
13.5 7 0
14.5 7 0
15.5 7 0
16.5 7 0
17.5 7 0
18.5 7 0
19.5 7 0
20.5 7 0
21.5 7 0
22.5 7 0
23.5 7 0
24.5 7 0
25.5 7 0
26.5 7 0
27.5 7 0
28.5 7 0
29.5 7 0
30.5 7 0
31.5 7 0
32.5 7 0
33.5 7 0
34.5 7 0
35.5 7 0
36.5 7 0
37.5 7 0
38.5 7 0
39.5 7 0
40.5 7 0
41.5 7 0
42.5 7 0
43.5 7 0
44.5 7 0
45.5 7 0
46.5 7 0
47.5 7 0
48.5 7 0
49.5 7 0
0 7.5 0
1 7.5 0
2 7.5 0
3 7.5 0
4 7.5 0
5 7.5 0
6 7.5 0
7 7.5 0
8 7.5 0
9 7.5 0
10 7.5 0
11 7.5 0
12 7.5 0
13 7.5 0
14 7.5 0
15 7.5 0
16 7.5 0
17 7.5 0
18 7.5 0
19 7.5 0
20 7.5 0
21 7.5 0
22 7.5 0
23 7.5 0
24 7.5 0
25 7.5 0
26 7.5 0
27 7.5 0
28 7.5 0
29 7.5 0
30 7.5 0
31 7.5 0
32 7.5 0
33 7.5 0
34 7.5 0
35 7.5 0
36 7.5 0
37 7.5 0
38 7.5 0
39 7.5 0
40 7.5 0
41 7.5 0
42 7.5 0
43 7.5 0
44 7.5 0
45 7.5 0
46 7.5 0
47 7.5 0
48 7.5 0
49 7.5 0
50 7.5 0
0.5 8 0
1.5 8 0
2.5 8 0
3.5 8 0
4.5 8 0
5.5 8 0
6.5 8 0
7.5 8 0
8.5 8 0
9.5 8 0
10.5 8 0
11.5 8 0
12.5 8 0
13.5 8 0
14.5 8 0
15.5 8 0
16.5 8 0
17.5 8 0
18.5 8 0
19.5 8 0
20.5 8 0
21.5 8 0
22.5 8 0
23.5 8 0
24.5 8 0
25.5 8 0
26.5 8 0
27.5 8 0
28.5 8 0
29.5 8 0
30.5 8 0
31.5 8 0
32.5 8 0
33.5 8 0
34.5 8 0
35.5 8 0
36.5 8 0
37.5 8 0
38.5 8 0
39.5 8 0
40.5 8 0
41.5 8 0
42.5 8 0
43.5 8 0
44.5 8 0
45.5 8 0
46.5 8 0
47.5 8 0
48.5 8 0
49.5 8 0
0 8.5 0
1 8.5 0
2 8.5 0
3 8.5 0
4 8.5 0
5 8.5 0
6 8.5 0
7 8.5 0
8 8.5 0
9 8.5 0
10 8.5 0
11 8.5 0
12 8.5 0
13 8.5 0
14 8.5 0
15 8.5 0
16 8.5 0
17 8.5 0
18 8.5 0
19 8.5 0
20 8.5 0
21 8.5 0
22 8.5 0
23 8.5 0
24 8.5 0
25 8.5 0
26 8.5 0
27 8.5 0
28 8.5 0
29 8.5 0
30 8.5 0
31 8.5 0
32 8.5 0
33 8.5 0
34 8.5 0
35 8.5 0
36 8.5 0
37 8.5 0
38 8.5 0
39 8.5 0
40 8.5 0
41 8.5 0
42 8.5 0
43 8.5 0
44 8.5 0
45 8.5 0
46 8.5 0
47 8.5 0
48 8.5 0
49 8.5 0
50 8.5 0
0.5 9 0
1.5 9 0
2.5 9 0
3.5 9 0
4.5 9 0
5.5 9 0
6.5 9 0
7.5 9 0
8.5 9 0
9.5 9 0
10.5 9 0
11.5 9 0
12.5 9 0
13.5 9 0
14.5 9 0
15.5 9 0
16.5 9 0
17.5 9 0
18.5 9 0
19.5 9 0
20.5 9 0
21.5 9 0
22.5 9 0
23.5 9 0
24.5 9 0
25.5 9 0
26.5 9 0
27.5 9 0
28.5 9 0
29.5 9 0
30.5 9 0
31.5 9 0
32.5 9 0
33.5 9 0
34.5 9 0
35.5 9 0
36.5 9 0
37.5 9 0
38.5 9 0
39.5 9 0
40.5 9 0
41.5 9 0
42.5 9 0
43.5 9 0
44.5 9 0
45.5 9 0
46.5 9 0
47.5 9 0
48.5 9 0
49.5 9 0
0 9.5 0
1 9.5 0
2 9.5 0
3 9.5 0
4 9.5 0
5 9.5 0
6 9.5 0
7 9.5 0
8 9.5 0
9 9.5 0
10 9.5 0
11 9.5 0
12 9.5 0
13 9.5 0
14 9.5 0
15 9.5 0
16 9.5 0
17 9.5 0
18 9.5 0
19 9.5 0
20 9.5 0
21 9.5 0
22 9.5 0
23 9.5 0
24 9.5 0
25 9.5 0
26 9.5 0
27 9.5 0
28 9.5 0
29 9.5 0
30 9.5 0
31 9.5 0
32 9.5 0
33 9.5 0
34 9.5 0
35 9.5 0
36 9.5 0
37 9.5 0
38 9.5 0
39 9.5 0
40 9.5 0
41 9.5 0
42 9.5 0
43 9.5 0
44 9.5 0
45 9.5 0
46 9.5 0
47 9.5 0
48 9.5 0
49 9.5 0
50 9.5 0
0.5 10 0
1.5 10 0
2.5 10 0
3.5 10 0
4.5 10 0
5.5 10 0
6.5 10 0
7.5 10 0
8.5 10 0
9.5 10 0
10.5 10 0
11.5 10 0
12.5 10 0
13.5 10 0
14.5 10 0
15.5 10 0
16.5 10 0
17.5 10 0
18.5 10 0
19.5 10 0
20.5 10 0
21.5 10 0
22.5 10 0
23.5 10 0
24.5 10 0
25.5 10 0
26.5 10 0
27.5 10 0
28.5 10 0
29.5 10 0
30.5 10 0
31.5 10 0
32.5 10 0
33.5 10 0
34.5 10 0
35.5 10 0
36.5 10 0
37.5 10 0
38.5 10 0
39.5 10 0
40.5 10 0
41.5 10 0
42.5 10 0
43.5 10 0
44.5 10 0
45.5 10 0
46.5 10 0
47.5 10 0
48.5 10 0
49.5 10 0
0 10.5 0
1 10.5 0
2 10.5 0
3 10.5 0
4 10.5 0
5 10.5 0
6 10.5 0
7 10.5 0
8 10.5 0
9 10.5 0
10 10.5 0
11 10.5 0
12 10.5 0
13 10.5 0
14 10.5 0
15 10.5 0
16 10.5 0
17 10.5 0
18 10.5 0
19 10.5 0
20 10.5 0
21 10.5 0
22 10.5 0
23 10.5 0
24 10.5 0
25 10.5 0
26 10.5 0
27 10.5 0
28 10.5 0
29 10.5 0
30 10.5 0
31 10.5 0
32 10.5 0
33 10.5 0
34 10.5 0
35 10.5 0
36 10.5 0
37 10.5 0
38 10.5 0
39 10.5 0
40 10.5 0
41 10.5 0
42 10.5 0
43 10.5 0
44 10.5 0
45 10.5 0
46 10.5 0
47 10.5 0
48 10.5 0
49 10.5 0
50 10.5 0
[...]
POINT_DATA 5100
VECTORS velocity float
0.158336 0.00155164 0.987384
0.368743 -0.133206 0.919937
0.529384 -0.299737 0.793669
0.621367 -0.473252 0.624448
0.641179 -0.632618 0.434377
0.596319 -0.764426 0.245063
0.500458 -0.862627 0.0735976
0.369085 -0.926838 -0.0689073
0.21657 -0.960095 -0.176958
0.054858 -0.966842 -0.249415
-0.106689 -0.951632 -0.28812
-0.260991 -0.91858 -0.296806
-0.402899 -0.871263 -0.280309
-0.528934 -0.812825 -0.244017
-0.637108 -0.746101 -0.193457
-0.726763 -0.673698 -0.133967
-0.798395 -0.598001 -0.0704291
-0.85344 -0.521143 -0.00706902
-0.894004 -0.444951 0.0526875
-0.922577 -0.370887 0.106278
-0.941741 -0.300034 0.151997
-0.953928 -0.233089 0.18892
-0.961232 -0.170408 0.216782
-0.96531 -0.112063 0.235836
-0.967361 -0.0579198 0.246694
-0.968164 -0.00771748 0.250198
-0.968158 0.0388588 0.247307
-0.967537 0.0821185 0.239016
-0.966345 0.122326 0.226303
-0.964551 0.159679 0.210104
-0.962108 0.194308 0.19129
-0.958995 0.226285 0.170655
-0.955236 0.255639 0.148904
-0.950905 0.282387 0.126635
-0.946116 0.306565 0.104322
-0.940994 0.328262 0.082301
-0.935644 0.347674 0.0607727
-0.930098 0.365146 0.0398135
-0.924283 0.381214 0.019413
-0.91798 0.396627 -0.000468116
-0.910819 0.412331 -0.0198116
-0.902306 0.429381 -0.0384128
-0.891902 0.448786 -0.0556958
-0.879143 0.471316 -0.0704853
-0.863768 0.497374 -0.0807786
-0.845696 0.527086 -0.0835347
-0.824649 0.560712 -0.0745383
-0.799069 0.599262 -0.0487288
-0.764808 0.644256 -0.00146174
-0.720579 0.690289 0.0653146
0.00155164 0.158336 0.987384
0.231668 0.055568 0.971206
0.444565 -0.0940743 0.890793
0.597683 -0.271827 0.754245
0.675814 -0.452745 0.581634
0.679882 -0.616956 0.396391
0.621034 -0.752613 0.21884
0.514783 -0.854973 0.0634039
0.376809 -0.924239 -0.0616144
0.220758 -0.963269 -0.152903
0.0576204 -0.975852 -0.210696
-0.104074 -0.965784 -0.237549
-0.25786 -0.936553 -0.237437
-0.399002 -0.891355 -0.215139
-0.524271 -0.83321 -0.175784
-0.631809 -0.765058 -0.124516
-0.721003 -0.689761 -0.0662118
-0.792342 -0.610055 -0.00525485
-0.847211 -0.528439 0.0546395
-0.887645 -0.447065 0.110536
-0.916041 -0.36765 0.160321
-0.934878 -0.291427 0.202665
-0.946483 -0.219156 0.236938
-0.952859 -0.151176 0.26307
-0.955592 -0.0874899 0.281405
-0.955841 -0.027876 0.292558
-0.954378 0.0280006 0.297286
-0.951669 0.0804847 0.296392
-0.947972 0.12985 0.290667
-0.943431 0.176245 0.280849
-0.938148 0.219683 0.267615
-0.932247 0.260049 0.251576
-0.925893 0.29715 0.23329
-0.919297 0.330776 0.21326
-0.912694 0.36076 0.191942
-0.906306 0.387039 0.169735
-0.900303 0.409693 0.146986
-0.894767 0.428977 0.123975
-0.88966 0.445333 0.100914
-0.884797 0.45941 0.0779493
-0.87983 0.472076 0.0551737
-0.874232 0.484408 0.0326763
-0.867318 0.49764 0.0106465
-0.858311 0.513023 -0.010446
-0.846456 0.531634 -0.029622
-0.831142 0.554224 -0.0451507
-0.811883 0.581291 -0.0542791
-0.787933 0.613472 -0.0530396
-0.757627 0.651653 -0.036741
-0.722232 0.69165 -0.00116636
-0.690289 0.720579 0.0653146
0.055568 0.231668 0.971206
0.301811 0.114663 0.946447
0.514738 -0.0487506 0.85596
0.65948 -0.237499 0.713219
0.72442 -0.426144 0.541864
0.714972 -0.596017 0.365484
0.645207 -0.736749 0.202259
0.53157 -0.844614 0.0637198
0.389289 -0.920048 -0.0443438
0.23101 -0.965484 -0.120312
0.0667461 -0.983978 -0.165326
-0.0956876 -0.978582 -0.182266
-0.250234 -0.952227 -0.175061
-0.392296 -0.907819 -0.148217
-0.518593 -0.848365 -0.106479
-0.627103 -0.777023 -0.0545621
-0.717023 -0.697043 0.00308757
-0.788682 -0.611616 0.0624985
-0.84337 -0.523685 0.120339
-0.883078 -0.435765 0.174017
-0.910206 -0.349819 0.221702
-0.927257 -0.267217 0.262277
-0.936592 -0.188763 0.295236
-0.940251 -0.114792 0.320547
-0.939873 -0.0452926 0.338509
-0.936679 0.0199425 0.349621
-0.931532 0.0811843 0.354481
-0.925022 0.138651 0.353709
-0.917565 0.192437 0.347913
-0.909494 0.242481 0.337673
-0.901124 0.288597 0.323555
-0.892771 0.330532 0.306117
-0.884752 0.368048 0.285926
-0.87735 0.400997 0.263549
-0.870778 0.429374 0.239547
-0.865155 0.453339 0.214453
-0.86049 0.473213 0.18875
-0.85668 0.489472 0.162842
-0.853508 0.502738 0.137032
-0.850632 0.513803 0.111501
-0.847554 0.523643 0.0863147
-0.843604 0.533436 0.0614686
-0.837944 0.5445 0.0370127
-0.829634 0.558151 0.0132549
-0.817764 0.575484 -0.00898374
-0.801581 0.597227 -0.028064
-0.780469 0.623839 -0.0411432
-0.753699 0.655746 -0.0439921
-0.722016 0.691104 -0.0326732
-0.69165 0.722232 -0.00116636
-0.133206 0.368743 0.919937
0.114663 0.301811 0.946447
0.369224 0.173378 0.913024
0.579605 -0.00286431 0.814892
0.714393 -0.201694 0.670046
0.766657 -0.397695 0.50406
0.74566 -0.573385 0.339441
0.667359 -0.719609 0.19182
0.548356 -0.833304 0.0700751
0.40308 -0.9149 -0.0220295
0.243128 -0.96634 -0.0841198
0.0776312 -0.989983 -0.11793
-0.0861573 -0.988222 -0.126465
-0.242394 -0.963518 -0.113483
-0.386406 -0.918572 -0.0831589
-0.514642 -0.856478 -0.0398521
-0.624753 -0.780729 0.0121045
-0.715661 -0.695069 0.068617
-0.787542 -0.603234 0.126036
-0.841664 -0.508648 0.181324
-0.880094 -0.41418 0.232142
-0.905349 -0.322006 0.276868
-0.920058 -0.233592 0.314529
-0.926691 -0.149768 0.344694
-0.927382 -0.0708729 0.367343
-0.923852 0.00308362 0.382738
-0.917415 0.0722542 0.391317
-0.909043 0.136812 0.393604
-0.899458 0.196847 0.390162
-0.889235 0.252316 0.381573
-0.878871 0.303055 0.368434
-0.868824 0.348834 0.351367
-0.859508 0.38945 0.331022
-0.851258 0.424802 0.308065
-0.844299 0.45495 0.283159
-0.838725 0.480127 0.25694
-0.834497 0.500721 0.229984
-0.831463 0.517252 0.202783
-0.82937 0.530351 0.175707
-0.82787 0.540772 0.148986
-0.826492 0.549416 0.122691
-0.824606 0.557374 0.0967462
-0.821394 0.565923 0.0710091
-0.815872 0.576444 0.0454391
-0.806988 0.590217 0.0203491
-0.793787 0.608187 -0.00328822
-0.775534 0.630871 -0.0234509
-0.751673 0.658513 -0.0367151
-0.722283 0.690473 -0.0394255
-0.691104 0.722016 -0.0326732
-0.644256 0.764808 -0.00146174
-0.0940743 0.444565 0.890793
0.173378 0.369224 0.913024
0.432455 0.229721 0.871901
0.63775 0.0423283 0.769079
0.762012 -0.165349 0.626097
0.802888 -0.368243 0.468794
0.772446 -0.549855 0.317783
0.687573 -0.701851 0.18614
0.564512 -0.821488 0.0805203
0.416774 -0.909005 0.00315411
0.255017 -0.96582 -0.0464526
0.0876799 -0.993659 -0.0703845
-0.0783243 -0.994351 -0.0716394
-0.237141 -0.969987 -0.0537503
-0.383811 -0.923182 -0.020574
-0.514365 -0.857239 0.0238626
-0.626059 -0.776109 0.0755363
-0.717571 -0.684124 0.130639
-0.789024 -0.585595 0.185792
-0.841791 -0.484397 0.238218
-0.878123 -0.383682 0.285811
-0.900736 -0.285758 0.327136
-0.912424 -0.192125 0.361345
-0.915786 -0.103615 0.388073
-0.913058 -0.020576 0.40731
-0.90606 0.0569342 0.419301
-0.896217 0.128981 0.424452
-0.884632 0.195622 0.42327
-0.872184 0.256827 0.416334
-0.859609 0.312461 0.404277
-0.847547 0.362335 0.387786
-0.836545 0.406283 0.367595
-0.827034 0.444253 0.344463
-0.819282 0.476365 0.319146
-0.813384 0.502923 0.292361
-0.809272 0.52439 0.264753
-0.806743 0.541349 0.236871
-0.805499 0.554468 0.209134
-0.805163 0.564499 0.181809
-0.805266 0.572299 0.154986
-0.805206 0.57889 0.128568
-0.8042 0.585486 0.102314
-0.801264 0.593468 0.0759663
-0.795272 0.60423 0.0494835
-0.78511 0.618916 0.0233455
-0.769861 0.638211 -0.0010869
-0.748897 0.662347 -0.0212165
-0.721989 0.691077 -0.033824
-0.690473 0.722283 -0.0394255
-0.651653 0.757627 -0.036741
-0.299737 0.529384 0.793669
-0.0487506 0.514738 0.85596
0.229721 0.432455 0.871901
0.490278 0.283067 0.824318
0.688626 0.0864168 0.719949
0.80268 -0.12886 0.582323
0.833867 -0.338184 0.436232
0.795978 -0.525775 0.299965
0.706075 -0.683745 0.184255
0.579735 -0.809367 0.0939821
0.429578 -0.902523 0.0302645
0.265513 -0.964074 -0.00796232
0.095541 -0.995161 -0.0229585
-0.0735078 -0.997139 -0.01764
-0.235537 -0.971854 0.00467805
-0.385136 -0.921975 0.040399
-0.517851 -0.851162 0.0857513
-0.630586 -0.76394 0.136957
-0.721895 -0.665277 0.190458
-0.791993 -0.560026 0.243143
-0.842472 -0.452421 0.292498
-0.875837 -0.345793 0.336657
-0.895012 -0.242498 0.374364
-0.902952 -0.144039 0.404884
-0.902373 -0.0512567 0.427898
-0.895623 0.0354431 0.4434
-0.884651 0.1159 0.451618
-0.871045 0.190043 0.452951
-0.856097 0.25779 0.447931
-0.840884 0.319008 0.437205
-0.826313 0.373536 0.421517
-0.813136 0.421255 0.40169
-0.801917 0.462171 0.378585
-0.793006 0.496477 0.353061
-0.786514 0.524564 0.325927
-0.782344 0.546986 0.2979
-0.780236 0.564409 0.269581
-0.779825 0.577567 0.241433
-0.78068 0.587237 0.213756
-0.782308 0.594267 0.18666
-0.784112 0.599626 0.160051
-0.785339 0.60447 0.133639
-0.785024 0.61015 0.107024
-0.782008 0.618126 0.0798989
-0.775059 0.629717 0.0523436
-0.763074 0.64582 0.0251733
-0.745259 0.666776 0.000260958
-0.721198 0.692449 -0.0196989
-0.691077 0.721989 -0.033824
-0.655746 0.753699 -0.0439921
-0.599262 0.799069 -0.0487288
-0.271827 0.597683 0.754245
-0.00286431 0.579605 0.814892
0.283067 0.490278 0.824318
0.541896 0.332538 0.77186
0.732214 0.128433 0.668856
0.836919 -0.0931971 0.539333
0.860194 -0.308363 0.406175
0.816608 -0.501797 0.285222
0.722833 -0.665752 0.185166
0.593626 -0.797255 0.109511
0.440825 -0.895679 0.0585856
0.27383 -0.961279 0.0309679
0.10048 -0.994642 0.0243263
-0.0722102 -0.996745 0.0358387
-0.237702 -0.969335 0.062353
-0.390039 -0.915303 0.10045
-0.524315 -0.83882 0.146541
-0.637215 -0.745066 0.197061
-0.727338 -0.639627 0.248709
-0.795127 -0.527798 0.298668
-0.842461 -0.414044 0.344713
-0.872089 -0.301766 0.385224
-0.887114 -0.193323 0.419112
-0.890608 -0.0902299 0.44573
-0.8854 0.00659507 0.464784
-0.873983 0.0966045 0.476258
-0.85851 0.17945 0.480373
-0.840819 0.254874 0.477559
-0.822474 0.322657 0.468432
-0.804786 0.38263 0.453777
-0.788814 0.434718 0.434503
-0.775338 0.479006 0.411589
-0.764824 0.515789 0.386013
-0.757424 0.545572 0.358692
-0.753013 0.569028 0.330423
-0.751258 0.586931 0.301866
-0.751708 0.600103 0.273518
-0.753851 0.609375 0.245704
-0.757138 0.61561 0.218555
-0.760954 0.619752 0.19198
-0.764556 0.622904 0.165666
-0.767001 0.626382 0.139126
-0.76712 0.631677 0.111852
-0.763601 0.640254 0.0836027
-0.755172 0.653237 0.0547378
-0.740839 0.671159 0.0265333
-0.720007 0.693965 0.00115801
-0.692449 0.721198 -0.0196989
-0.658513 0.751673 -0.0367151
-0.613472 0.787933 -0.0530396
-0.473252 0.621367 0.624448
-0.237499 0.65948 0.713219
0.0423283 0.63775 0.769079
0.332538 0.541896 0.77186
0.586982 0.377373 0.716269
0.76889 0.16749 0.617054
0.865394 -0.0592452 0.497577
0.882438 -0.279542 0.378364
0.834604 -0.478501 0.272898
0.737794 -0.648278 0.188138
0.60589 -0.785423 0.126525
0.450111 -0.888643 0.0878228
0.279605 -0.957532 0.0703734
0.102334 -0.992155 0.0718027
-0.0742645 -0.993229 0.0893379
-0.243064 -0.962571 0.119905
-0.397562 -0.903485 0.160183
-0.532524 -0.820781 0.20673
-0.644604 -0.72031 0.256203
-0.732611 -0.608183 0.305607
-0.797298 -0.489986 0.352462
-0.840821 -0.370277 0.394861
-0.86611 -0.252447 0.43142
-0.876367 -0.138861 0.461193
-0.874744 -0.0311244 0.483585
-0.864203 0.0696444 0.4983
-0.847471 0.162624 0.505318
-0.82703 0.247185 0.504896
-0.805099 0.322863 0.497569
-0.783585 0.389375 0.484129
-0.76403 0.44666 0.465568
-0.74755 0.494901 0.442993
-0.734808 0.534539 0.417522
-0.726028 0.566243 0.390194
-0.721063 0.590843 0.361902
-0.7195 0.609254 0.333359
-0.720779 0.622411 0.305095
-0.724279 0.631225 0.277444
-0.729367 0.636595 0.25054
-0.735379 0.639462 0.22429
-0.741556 0.640895 0.198364
-0.746962 0.642176 0.172214
-0.750428 0.644808 0.145195
-0.75058 0.650374 0.116803
-0.746007 0.660227 0.0870264
-0.735511 0.67514 0.0566544
-0.718298 0.695196 0.0273791
-0.693965 0.720007 0.00115801
-0.662347 0.748897 -0.0212165
-0.623839 0.780469 -0.0411432
-0.560712 0.824649 -0.0745383
-0.452745 0.675814 0.581634
-0.201694 0.714393 0.670046
0.0864168 0.688626 0.719949
0.377373 0.586982 0.716269
0.62561 0.417159 0.659234
0.799277 0.203047 0.565622
0.888842 -0.0275811 0.457384
0.901149 -0.252235 0.352574
0.850223 -0.456291 0.262523
0.750956 -0.631599 0.192737
0.616377 -0.774022 0.144808
0.457271 -0.881457 0.118055
0.282802 -0.952778 0.110618
0.101324 -0.987585 0.120042
-0.0791026 -0.986482 0.143515
-0.250706 -0.951566 0.177956
-0.40653 -0.886732 0.22009
-0.541203 -0.7975 0.266634
-0.65155 -0.690329 0.314528
-0.736708 -0.571693 0.361149
-0.797742 -0.447286 0.404404
-0.836999 -0.321631 0.442704
-0.857471 -0.198081 0.474877
-0.862366 -0.0790813 0.500071
-0.854903 0.0335059 0.517705
-0.838259 0.138165 0.527477
-0.815561 0.233631 0.529412
-0.789815 0.318929 0.523905
-0.763759 0.393462 0.511722
-0.73967 0.457079 0.49393
-0.719211 0.510063 0.471775
-0.703375 0.553058 0.446531
-0.692522 0.586971 0.419378
-0.686502 0.612856 0.391308
-0.684815 0.631816 0.363094
-0.686771 0.644927 0.335283
-0.691619 0.653204 0.3082
-0.698609 0.657605 0.281958
-0.706995 0.659087 0.256441
-0.715973 0.658702 0.231289
-0.724587 0.657706 0.205905
-0.731654 0.657608 0.179538
-0.735753 0.66009 0.151487
-0.735351 0.666719 0.121432
-0.72905 0.678548 0.0897693
-0.715848 0.695861 0.0577789
-0.695196 0.718298 0.0273791
-0.666776 0.745259 0.000260958
-0.630871 0.775534 -0.0234509
-0.581291 0.811883 -0.0542791
-0.632618 0.641179 0.434377
-0.426144 0.72442 0.541864
-0.165349 0.762012 0.626097
0.128433 0.732214 0.668856
0.417159 0.62561 0.659234
0.658175 0.451864 0.602183
0.824145 0.234926 0.515359
0.908013 0.00153577 0.41894
0.916851 -0.226704 0.328617
0.863731 -0.435366 0.25382
0.762391 -0.615819 0.198816
0.625076 -0.763042 0.164461
0.46234 -0.873982 0.149657
0.28363 -0.946763 0.152294
0.0979353 -0.98061 0.16974
-0.0859282 -0.976216 0.199044
-0.259575 -0.936178 0.237047
-0.415768 -0.865125 0.280528
-0.549235 -0.769278 0.326423
-0.657139 -0.655553 0.372046
-0.738987 -0.53056 0.415216
-0.796072 -0.399911 0.454247
-0.83077 -0.267997 0.487851
-0.845976 -0.138183 0.515005
-0.844818 -0.0131852 0.534892
-0.830625 0.10459 0.546922
-0.806988 0.212936 0.550844
-0.777717 0.309986 0.546869
-0.746588 0.39448 0.535717
-0.716941 0.465957 0.518537
-0.69131 0.524739 0.496729
-0.671244 0.571743 0.471743
-0.657362 0.608224 0.444903
-0.649554 0.63556 0.417305
-0.64723 0.655111 0.389772
-0.649557 0.668142 0.362853
-0.655624 0.675791 0.336844
-0.66454 0.679091 0.311805
-0.675443 0.679032 0.287563
-0.687449 0.676665 0.263701
-0.699548 0.673232 0.239564
-0.710515 0.670253 0.214309
-0.718873 0.669494 0.187082
-0.722974 0.672726 0.157316
-0.721237 0.681301 0.125085
-0.712437 0.695768 0.0913251
-0.695861 0.715848 0.0577789
-0.671159 0.740839 0.0265333
-0.638211 0.769861 -0.0010869
-0.597227 0.801581 -0.028064
-0.527086 0.845696 -0.0835347
-0.616956 0.679882 0.396391
-0.397695 0.766657 0.50406
-0.12886 0.80268 0.582323
0.16749 0.76889 0.617054
0.451864 0.658175 0.602183
0.685285 0.481756 0.546165
0.844303 0.263229 0.466758
0.923612 0.0280957 0.382297
0.930025 -0.202988 0.306348
0.875396 -0.415727 0.246684
0.772239 -0.600848 0.206464
0.632105 -0.752269 0.185832
0.465526 -0.865863 0.183211
0.282491 -0.939007 0.196124
0.0928308 -0.970702 0.221629
-0.0938257 -0.961969 0.256541
-0.268603 -0.916124 0.297607
-0.424227 -0.838605 0.341721
-0.555753 -0.736227 0.386145
-0.660798 -0.616111 0.428665
-0.739183 -0.484737 0.467587
-0.79225 -0.347443 0.501621
-0.822167 -0.208464 0.529703
-0.831531 -0.0713592 0.550875
-0.823349 0.060495 0.564302
-0.801252 0.183674 0.569438
-0.769634 0.294944 0.566278
-0.733402 0.39184 0.555503
-0.697302 0.473178 0.538398
-0.665172 0.539156 0.516582
-0.639482 0.591006 0.491705
-0.621326 0.630486 0.465231
-0.610722 0.659457 0.438333
-0.607008 0.679643 0.411857
-0.609194 0.692554 0.386331
-0.616192 0.699477 0.361993
-0.626943 0.70153 0.338818
-0.64044 0.699744 0.316536
-0.655678 0.695181 0.294633
-0.671554 0.689082 0.272363
-0.686759 0.682983 0.248788
-0.699727 0.678739 0.222923
-0.708693 0.678318 0.194008
-0.711897 0.683379 0.161854
-0.707889 0.694791 0.127116
-0.695768 0.712437 0.0913251
-0.67514 0.735511 0.0566544
-0.64582 0.763074 0.0251733
-0.608187 0.793787 -0.00328822
-0.554224 0.831142 -0.0451507
-0.764426 0.596319 0.245063
-0.596017 0.714972 0.365484
-0.368243 0.802888 0.468794
-0.0931971 0.836919 0.539333
0.203047 0.799277 0.565622
0.481756 0.685285 0.546165
0.707649 0.50729 0.491823
0.860518 0.28824 0.420031
0.936256 0.0522713 0.347408
0.941089 -0.180939 0.285678
0.88549 -0.397176 0.241161
0.78071 -0.586388 0.215965
0.637699 -0.741261 0.209459
0.46718 -0.856498 0.219438
0.279936 -0.928786 0.242884
0.0867932 -0.957115 0.276403
-0.101837 -0.943103 0.316521
-0.276801 -0.890969 0.359938
-0.431068 -0.806935 0.403778
-0.560221 -0.698175 0.445762
-0.66235 -0.571687 0.484217
-0.737435 -0.433508 0.517939
-0.78656 -0.288551 0.54595
-0.811356 -0.141013 0.567289
-0.813918 0.00489503 0.580959
-0.797238 0.144426 0.586134
-0.765738 0.2725 0.582571
-0.72528 0.384699 0.570942
-0.682287 0.478439 0.552793
-0.64241 0.553427 0.530121
-0.609541 0.6112 0.50487
-0.585592 0.654207 0.478639
-0.57088 0.685011 0.452609
-0.564732 0.70587 0.42758
-0.566006 0.718621 0.404008
-0.573425 0.724731 0.382032
-0.585749 0.725404 0.361508
-0.601802 0.721703 0.342022
-0.620424 0.714703 0.322915
-0.640364 0.705649 0.303303
-0.660176 0.696113 0.282123
-0.678154 0.688046 0.258264
-0.692381 0.683621 0.230806
-0.700915 0.684817 0.199358
-0.702087 0.692866 0.164349
-0.694791 0.707889 0.127116
-0.678548 0.72905 0.0897693
-0.653237 0.755172 0.0547378
-0.618916 0.78511 0.0233455
-0.575484 0.817764 -0.00898374
-0.497374 0.863768 -0.0807786
-0.752613 0.621034 0.21884
-0.573385 0.74566 0.339441
-0.338184 0.833867 0.436232
-0.0592452 0.865394 0.497577
0.234926 0.824145 0.515359
0.50729 0.707649 0.491823
0.725976 0.529005 0.439446
0.873458 0.310339 0.375181
0.946449 0.0743682 0.31417
0.950399 -0.160239 0.266581
0.894288 -0.37931 0.23743
0.788074 -0.571896 0.227759
0.642197 -0.729302 0.236012
0.467785 -0.845001 0.259134
0.276637 -0.915105 0.29335
0.0806733 -0.938868 0.334691
-0.109042 -0.918786 0.379398
-0.283358 -0.860073 0.424243
-0.435774 -0.76958 0.466742
-0.562533 -0.654484 0.50518
-0.662106 -0.521231 0.538456
-0.734309 -0.375102 0.565764
-0.779514 -0.220554 0.586271
-0.798376 -0.0622018 0.598938
-0.792398 0.0941335 0.602698
-0.765077 0.241244 0.597042
-0.722622 0.371901 0.582672
-0.673173 0.48109 0.561597
-0.624719 0.567373 0.536483
-0.583189 0.632453 0.509798
-0.551778 0.67966 0.483325
-0.531375 0.712546 0.458168
-0.521424 0.734126 0.434944
-0.520682 0.746695 0.413928
-0.527711 0.751944 0.395098
-0.541094 0.751151 0.378139
-0.559482 0.745392 0.362451
-0.581529 0.735728 0.34717
-0.605788 0.723409 0.33121
-0.630596 0.710052 0.31333
-0.654031 0.697727 0.292267
-0.673963 0.688842 0.266967
-0.688241 0.685718 0.236886
-0.69498 0.689988 0.202285
-0.692866 0.702087 0.164349
-0.681301 0.721237 0.125085
-0.660227 0.746007 0.0870264
-0.629717 0.775059 0.0523436
-0.590217 0.806988 0.0203491
-0.531634 0.846456 -0.029622
-0.862627 0.500458 0.0735976
-0.736749 0.645207 0.202259
-0.549855 0.772446 0.317783
-0.308363 0.860194 0.406175
-0.0275811 0.888842 0.457384
0.263229 0.844303 0.466758
0.529005 0.725976 0.439446
0.740904 0.547447 0.389053
0.883657 0.32996 0.332079
0.95458 0.094798 0.282471
0.958247 -0.140402 0.2491
0.902068 -0.361501 0.235778
0.794663 -0.556554 0.2424
0.646041 -0.715361 0.266249
0.467935 -0.83015 0.303129
0.273354 -0.896653 0.348268
0.07532 -0.914704 0.397043
-0.114665 -0.887907 0.445502
-0.287787 -0.822447 0.490672
-0.438319 -0.725479 0.530619
-0.563184 -0.603686 0.564258
-0.660957 -0.462478 0.590973
-0.73075 -0.306141 0.610149
-0.771535 -0.13901 0.620814
-0.78257 0.0327437 0.621701
-0.765158 0.200008 0.611989
-0.724663 0.352009 0.592414
-0.670531 0.479968 0.565702
-0.613518 0.580239 0.535648
-0.562292 0.654345 0.505629
-0.521879 0.706653 0.47779
-0.494083 0.742009 0.453105
-0.478669 0.764451 0.431846
-0.474432 0.776899 0.413936
-0.479858 0.78133 0.399074
-0.493421 0.779099 0.386706
-0.51363 0.771246 0.375984
-0.538953 0.758776 0.365772
-0.567692 0.742911 0.354697
-0.597883 0.725313 0.341258
-0.627272 0.70821 0.323987
-0.653415 0.694287 0.301686
-0.673888 0.686265 0.273706
-0.686582 0.686224 0.24021
-0.689988 0.69498 0.202285
-0.683379 0.711897 0.161854
-0.666719 0.735351 0.121432
-0.640254 0.763601 0.0836027