# vtk DataFile Version 2.0
tmp/0.000.00-10.000.000.001.0077.vtk
ASCII
DATASET UNSTRUCTURED_GRID
POINTS 5000 float
0.25 0.25 0
1.25 0.25 0
2.25 0.25 0
3.25 0.25 0
4.25 0.25 0
5.25 0.25 0
6.25 0.25 0
7.25 0.25 0
8.25 0.25 0
9.25 0.25 0
10.25 0.25 0
11.25 0.25 0
12.25 0.25 0
13.25 0.25 0
14.25 0.25 0
15.25 0.25 0
16.25 0.25 0
17.25 0.25 0
18.25 0.25 0
19.25 0.25 0
20.25 0.25 0
21.25 0.25 0
22.25 0.25 0
23.25 0.25 0
24.25 0.25 0
25.25 0.25 0
26.25 0.25 0
27.25 0.25 0
28.25 0.25 0
29.25 0.25 0
30.25 0.25 0
31.25 0.25 0
32.25 0.25 0
33.25 0.25 0
34.25 0.25 0
35.25 0.25 0
36.25 0.25 0
37.25 0.25 0
38.25 0.25 0
39.25 0.25 0
40.25 0.25 0
41.25 0.25 0
42.25 0.25 0
43.25 0.25 0
44.25 0.25 0
45.25 0.25 0
46.25 0.25 0
47.25 0.25 0
48.25 0.25 0
49.25 0.25 0
0.75 0.75 0
1.75 0.75 0
2.75 0.75 0
3.75 0.75 0
4.75 0.75 0
5.75 0.75 0
6.75 0.75 0
7.75 0.75 0
8.75 0.75 0
9.75 0.75 0
10.75 0.75 0
11.75 0.75 0
12.75 0.75 0
13.75 0.75 0
14.75 0.75 0
15.75 0.75 0
16.75 0.75 0
17.75 0.75 0
18.75 0.75 0
19.75 0.75 0
20.75 0.75 0
21.75 0.75 0
22.75 0.75 0
23.75 0.75 0
24.75 0.75 0
25.75 0.75 0
26.75 0.75 0
27.75 0.75 0
28.75 0.75 0
29.75 0.75 0
30.75 0.75 0
31.75 0.75 0
32.75 0.75 0
33.75 0.75 0
34.75 0.75 0
35.75 0.75 0
36.75 0.75 0
37.75 0.75 0
38.75 0.75 0
39.75 0.75 0
40.75 0.75 0
41.75 0.75 0
42.75 0.75 0
43.75 0.75 0
44.75 0.75 0
45.75 0.75 0
46.75 0.75 0
47.75 0.75 0
48.75 0.75 0
49.75 0.75 0
0.25 1.25 0
1.25 1.25 0
2.25 1.25 0
3.25 1.25 0
4.25 1.25 0
5.25 1.25 0
6.25 1.25 0
7.25 1.25 0
8.25 1.25 0
9.25 1.25 0
10.25 1.25 0
11.25 1.25 0
12.25 1.25 0
13.25 1.25 0
14.25 1.25 0
15.25 1.25 0
16.25 1.25 0
17.25 1.25 0
18.25 1.25 0
19.25 1.25 0
20.25 1.25 0
21.25 1.25 0
22.25 1.25 0
23.25 1.25 0
24.25 1.25 0
25.25 1.25 0
26.25 1.25 0
27.25 1.25 0
28.25 1.25 0
29.25 1.25 0
30.25 1.25 0
31.25 1.25 0
32.25 1.25 0
33.25 1.25 0
34.25 1.25 0
35.25 1.25 0
36.25 1.25 0
37.25 1.25 0
38.25 1.25 0
39.25 1.25 0
40.25 1.25 0
41.25 1.25 0
42.25 1.25 0
43.25 1.25 0
44.25 1.25 0
45.25 1.25 0
46.25 1.25 0
47.25 1.25 0
48.25 1.25 0
49.25 1.25 0
0.75 1.75 0
1.75 1.75 0
2.75 1.75 0
3.75 1.75 0
4.75 1.75 0
5.75 1.75 0
6.75 1.75 0
7.75 1.75 0
8.75 1.75 0
9.75 1.75 0
10.75 1.75 0
11.75 1.75 0
12.75 1.75 0
13.75 1.75 0
14.75 1.75 0
15.75 1.75 0
16.75 1.75 0
17.75 1.75 0
18.75 1.75 0
19.75 1.75 0
20.75 1.75 0
21.75 1.75 0
22.75 1.75 0
23.75 1.75 0
24.75 1.75 0
25.75 1.75 0
26.75 1.75 0
27.75 1.75 0
28.75 1.75 0
29.75 1.75 0
30.75 1.75 0
31.75 1.75 0
32.75 1.75 0
33.75 1.75 0
34.75 1.75 0
35.75 1.75 0
36.75 1.75 0
37.75 1.75 0
38.75 1.75 0
39.75 1.75 0
40.75 1.75 0
41.75 1.75 0
42.75 1.75 0
43.75 1.75 0
44.75 1.75 0
45.75 1.75 0
46.75 1.75 0
47.75 1.75 0
48.75 1.75 0
49.75 1.75 0
0.25 2.25 0
1.25 2.25 0
2.25 2.25 0
3.25 2.25 0
4.25 2.25 0
5.25 2.25 0
6.25 2.25 0
7.25 2.25 0
8.25 2.25 0
9.25 2.25 0
10.25 2.25 0
11.25 2.25 0
12.25 2.25 0
13.25 2.25 0
14.25 2.25 0
15.25 2.25 0
16.25 2.25 0
17.25 2.25 0
18.25 2.25 0
19.25 2.25 0
20.25 2.25 0
21.25 2.25 0
22.25 2.25 0
23.25 2.25 0
24.25 2.25 0
25.25 2.25 0
26.25 2.25 0
27.25 2.25 0
28.25 2.25 0
29.25 2.25 0
30.25 2.25 0
31.25 2.25 0
32.25 2.25 0
33.25 2.25 0
34.25 2.25 0
35.25 2.25 0
36.25 2.25 0
37.25 2.25 0
38.25 2.25 0
39.25 2.25 0
40.25 2.25 0
41.25 2.25 0
42.25 2.25 0
43.25 2.25 0
44.25 2.25 0
45.25 2.25 0
46.25 2.25 0
47.25 2.25 0
48.25 2.25 0
49.25 2.25 0
0.75 2.75 0
1.75 2.75 0
2.75 2.75 0
3.75 2.75 0
4.75 2.75 0
5.75 2.75 0
6.75 2.75 0
7.75 2.75 0
8.75 2.75 0
9.75 2.75 0
10.75 2.75 0
11.75 2.75 0
12.75 2.75 0
13.75 2.75 0
14.75 2.75 0
15.75 2.75 0
16.75 2.75 0
17.75 2.75 0
18.75 2.75 0
19.75 2.75 0
20.75 2.75 0
21.75 2.75 0
22.75 2.75 0
23.75 2.75 0
24.75 2.75 0
25.75 2.75 0
26.75 2.75 0
27.75 2.75 0
28.75 2.75 0
29.75 2.75 0
30.75 2.75 0
31.75 2.75 0
32.75 2.75 0
33.75 2.75 0
34.75 2.75 0
35.75 2.75 0
36.75 2.75 0
37.75 2.75 0
38.75 2.75 0
39.75 2.75 0
40.75 2.75 0
41.75 2.75 0
42.75 2.75 0
43.75 2.75 0
44.75 2.75 0
45.75 2.75 0
46.75 2.75 0
47.75 2.75 0
48.75 2.75 0
49.75 2.75 0
0.25 3.25 0
1.25 3.25 0
2.25 3.25 0
3.25 3.25 0
4.25 3.25 0
5.25 3.25 0
6.25 3.25 0
7.25 3.25 0
8.25 3.25 0
9.25 3.25 0
10.25 3.25 0
11.25 3.25 0
12.25 3.25 0
13.25 3.25 0
14.25 3.25 0
15.25 3.25 0
16.25 3.25 0
17.25 3.25 0
18.25 3.25 0
19.25 3.25 0
20.25 3.25 0
21.25 3.25 0
22.25 3.25 0
23.25 3.25 0
24.25 3.25 0
25.25 3.25 0
26.25 3.25 0
27.25 3.25 0
28.25 3.25 0
29.25 3.25 0
30.25 3.25 0
31.25 3.25 0
32.25 3.25 0
33.25 3.25 0
34.25 3.25 0
35.25 3.25 0
36.25 3.25 0
37.25 3.25 0
38.25 3.25 0
39.25 3.25 0
40.25 3.25 0
41.25 3.25 0
42.25 3.25 0
43.25 3.25 0
44.25 3.25 0
45.25 3.25 0
46.25 3.25 0
47.25 3.25 0
48.25 3.25 0
49.25 3.25 0
0.75 3.75 0
1.75 3.75 0
2.75 3.75 0
3.75 3.75 0
4.75 3.75 0
5.75 3.75 0
6.75 3.75 0
7.75 3.75 0
8.75 3.75 0
9.75 3.75 0
10.75 3.75 0
11.75 3.75 0
12.75 3.75 0
13.75 3.75 0
14.75 3.75 0
15.75 3.75 0
16.75 3.75 0
17.75 3.75 0
18.75 3.75 0
19.75 3.75 0
20.75 3.75 0
21.75 3.75 0
22.75 3.75 0
23.75 3.75 0
24.75 3.75 0
25.75 3.75 0
26.75 3.75 0
27.75 3.75 0
28.75 3.75 0
29.75 3.75 0
30.75 3.75 0
31.75 3.75 0
32.75 3.75 0
33.75 3.75 0
34.75 3.75 0
35.75 3.75 0
36.75 3.75 0
37.75 3.75 0
38.75 3.75 0
39.75 3.75 0
40.75 3.75 0
41.75 3.75 0
42.75 3.75 0
43.75 3.75 0
44.75 3.75 0
45.75 3.75 0
46.75 3.75 0
47.75 3.75 0
48.75 3.75 0
49.75 3.75 0
0.25 4.25 0
1.25 4.25 0
2.25 4.25 0
3.25 4.25 0
4.25 4.25 0
5.25 4.25 0
6.25 4.25 0
7.25 4.25 0
8.25 4.25 0
9.25 4.25 0
10.25 4.25 0
11.25 4.25 0
12.25 4.25 0
13.25 4.25 0
14.25 4.25 0
15.25 4.25 0
16.25 4.25 0
17.25 4.25 0
18.25 4.25 0
19.25 4.25 0
20.25 4.25 0
21.25 4.25 0
22.25 4.25 0
23.25 4.25 0
24.25 4.25 0
25.25 4.25 0
26.25 4.25 0
27.25 4.25 0
28.25 4.25 0
29.25 4.25 0
30.25 4.25 0
31.25 4.25 0
32.25 4.25 0
33.25 4.25 0
34.25 4.25 0
35.25 4.25 0
36.25 4.25 0
37.25 4.25 0
38.25 4.25 0
39.25 4.25 0
40.25 4.25 0
41.25 4.25 0
42.25 4.25 0
43.25 4.25 0
44.25 4.25 0
45.25 4.25 0
46.25 4.25 0
47.25 4.25 0
48.25 4.25 0
49.25 4.25 0
0.75 4.75 0
1.75 4.75 0
2.75 4.75 0
3.75 4.75 0
4.75 4.75 0
5.75 4.75 0
6.75 4.75 0
7.75 4.75 0
8.75 4.75 0
9.75 4.75 0
10.75 4.75 0
11.75 4.75 0
12.75 4.75 0
13.75 4.75 0
14.75 4.75 0
15.75 4.75 0
16.75 4.75 0
17.75 4.75 0
18.75 4.75 0
19.75 4.75 0
20.75 4.75 0
21.75 4.75 0
22.75 4.75 0
23.75 4.75 0
24.75 4.75 0
25.75 4.75 0
26.75 4.75 0
27.75 4.75 0
28.75 4.75 0
29.75 4.75 0
30.75 4.75 0
31.75 4.75 0
32.75 4.75 0
33.75 4.75 0
34.75 4.75 0
35.75 4.75 0
36.75 4.75 0
37.75 4.75 0
38.75 4.75 0
39.75 4.75 0
40.75 4.75 0
41.75 4.75 0
42.75 4.75 0
43.75 4.75 0
44.75 4.75 0
45.75 4.75 0
46.75 4.75 0
47.75 4.75 0
48.75 4.75 0
49.75 4.75 0
0.25 5.25 0
1.25 5.25 0
2.25 5.25 0
3.25 5.25 0
4.25 5.25 0
5.25 5.25 0
6.25 5.25 0
7.25 5.25 0
8.25 5.25 0
9.25 5.25 0
10.25 5.25 0
11.25 5.25 0
12.25 5.25 0
13.25 5.25 0
14.25 5.25 0
15.25 5.25 0
16.25 5.25 0
17.25 5.25 0
18.25 5.25 0
19.25 5.25 0
20.25 5.25 0
21.25 5.25 0
22.25 5.25 0
23.25 5.25 0
24.25 5.25 0
25.25 5.25 0
26.25 5.25 0
27.25 5.25 0
28.25 5.25 0
29.25 5.25 0
30.25 5.25 0
31.25 5.25 0
32.25 5.25 0
33.25 5.25 0
34.25 5.25 0
35.25 5.25 0
36.25 5.25 0
37.25 5.25 0
38.25 5.25 0
39.25 5.25 0
40.25 5.25 0
41.25 5.25 0
42.25 5.25 0
43.25 5.25 0
44.25 5.25 0
45.25 5.25 0
46.25 5.25 0
47.25 5.25 0
48.25 5.25 0
49.25 5.25 0
0.75 5.75 0
1.75 5.75 0
2.75 5.75 0
3.75 5.75 0
4.75 5.75 0
5.75 5.75 0
6.75 5.75 0
7.75 5.75 0
8.75 5.75 0
9.75 5.75 0
10.75 5.75 0
11.75 5.75 0
12.75 5.75 0
13.75 5.75 0
14.75 5.75 0
15.75 5.75 0
16.75 5.75 0
17.75 5.75 0
18.75 5.75 0
19.75 5.75 0
20.75 5.75 0
21.75 5.75 0
22.75 5.75 0
23.75 5.75 0
24.75 5.75 0
25.75 5.75 0
26.75 5.75 0
27.75 5.75 0
28.75 5.75 0
29.75 5.75 0
30.75 5.75 0
31.75 5.75 0
32.75 5.75 0
33.75 5.75 0
34.75 5.75 0
35.75 5.75 0
36.75 5.75 0
37.75 5.75 0
38.75 5.75 0
39.75 5.75 0
40.75 5.75 0
41.75 5.75 0
42.75 5.75 0
43.75 5.75 0
44.75 5.75 0
45.75 5.75 0
46.75 5.75 0
47.75 5.75 0
48.75 5.75 0
49.75 5.75 0
0.25 6.25 0
1.25 6.25 0
2.25 6.25 0
3.25 6.25 0
4.25 6.25 0
5.25 6.25 0
6.25 6.25 0
7.25 6.25 0
8.25 6.25 0
9.25 6.25 0
10.25 6.25 0
11.25 6.25 0
12.25 6.25 0
13.25 6.25 0
14.25 6.25 0
15.25 6.25 0
16.25 6.25 0
17.25 6.25 0
18.25 6.25 0
19.25 6.25 0
20.25 6.25 0
21.25 6.25 0
22.25 6.25 0
23.25 6.25 0
24.25 6.25 0
25.25 6.25 0
26.25 6.25 0
27.25 6.25 0
28.25 6.25 0
29.25 6.25 0
30.25 6.25 0
31.25 6.25 0
32.25 6.25 0
33.25 6.25 0
34.25 6.25 0
35.25 6.25 0
36.25 6.25 0
37.25 6.25 0
38.25 6.25 0
39.25 6.25 0
40.25 6.25 0
41.25 6.25 0
42.25 6.25 0
43.25 6.25 0
44.25 6.25 0
45.25 6.25 0
46.25 6.25 0
47.25 6.25 0
48.25 6.25 0
49.25 6.25 0
0.75 6.75 0
1.75 6.75 0
2.75 6.75 0
3.75 6.75 0
4.75 6.75 0
5.75 6.75 0
6.75 6.75 0
7.75 6.75 0
8.75 6.75 0
9.75 6.75 0
10.75 6.75 0
11.75 6.75 0
12.75 6.75 0
13.75 6.75 0
14.75 6.75 0
15.75 6.75 0
16.75 6.75 0
17.75 6.75 0
18.75 6.75 0
19.75 6.75 0
20.75 6.75 0
21.75 6.75 0
22.75 6.75 0
23.75 6.75 0
24.75 6.75 0
25.75 6.75 0
26.75 6.75 0
27.75 6.75 0
28.75 6.75 0
29.75 6.75 0
30.75 6.75 0
31.75 6.75 0
32.75 6.75 0
33.75 6.75 0
34.75 6.75 0
35.75 6.75 0
36.75 6.75 0
37.75 6.75 0
38.75 6.75 0
39.75 6.75 0
40.75 6.75 0
41.75 6.75 0
42.75 6.75 0
43.75 6.75 0
44.75 6.75 0
45.75 6.75 0
46.75 6.75 0
47.75 6.75 0
48.75 6.75 0
49.75 6.75 0
0.25 7.25 0
1.25 7.25 0
2.25 7.25 0
3.25 7.25 0
4.25 7.25 0
5.25 7.25 0
6.25 7.25 0
7.25 7.25 0
8.25 7.25 0
9.25 7.25 0
10.25 7.25 0
11.25 7.25 0
12.25 7.25 0
13.25 7.25 0
14.25 7.25 0
15.25 7.25 0
16.25 7.25 0
17.25 7.25 0
18.25 7.25 0
19.25 7.25 0
20.25 7.25 0
21.25 7.25 0
22.25 7.25 0
23.25 7.25 0
24.25 7.25 0
25.25 7.25 0
26.25 7.25 0
27.25 7.25 0
28.25 7.25 0
29.25 7.25 0
30.25 7.25 0
31.25 7.25 0
32.25 7.25 0
33.25 7.25 0
34.25 7.25 0
35.25 7.25 0
36.25 7.25 0
37.25 7.25 0
38.25 7.25 0
39.25 7.25 0
40.25 7.25 0
41.25 7.25 0
42.25 7.25 0
43.25 7.25 0
44.25 7.25 0
45.25 7.25 0
46.25 7.25 0
47.25 7.25 0
48.25 7.25 0
49.25 7.25 0
0.75 7.75 0
1.75 7.75 0
2.75 7.75 0
3.75 7.75 0
4.75 7.75 0
5.75 7.75 0
6.75 7.75 0
7.75 7.75 0
8.75 7.75 0
9.75 7.75 0
10.75 7.75 0
11.75 7.75 0
12.75 7.75 0
13.75 7.75 0
14.75 7.75 0
15.75 7.75 0
16.75 7.75 0
17.75 7.75 0
18.75 7.75 0
19.75 7.75 0
20.75 7.75 0
21.75 7.75 0
[...]
POINT_DATA 5000
VECTORS velocity float
0.321981 0.321981 0.890312
0.38399 0.22983 0.894276
0.477898 0.116906 0.870601
0.576823 -0.0192056 0.816644
0.660407 -0.173688 0.730544
0.712737 -0.335496 0.615993
0.725232 -0.491716 0.481927
0.696903 -0.631507 0.339889
0.632351 -0.748045 0.201398
0.539238 -0.838684 0.0763654
0.426332 -0.904147 -0.0275712
0.302326 -0.947376 -0.10525
0.175182 -0.972417 -0.154003
0.0517267 -0.983465 -0.173556
-0.0626369 -0.984177 -0.16575
-0.164129 -0.977283 -0.134088
-0.250649 -0.964501 -0.0831374
-0.321672 -0.946681 -0.0179204
-0.377994 -0.924075 0.056618
-0.421379 -0.896631 0.13599
-0.454191 -0.864227 0.216383
-0.479046 -0.826832 0.294726
-0.498537 -0.78457 0.36866
-0.515048 -0.737731 0.436438
-0.530637 -0.68674 0.496802
-0.546968 -0.632123 0.548859
-0.565288 -0.574459 0.591985
-0.586415 -0.514354 0.625746
-0.610742 -0.452414 0.649859
-0.63825 -0.389232 0.66418
-0.668535 -0.325377 0.668724
-0.700849 -0.261385 0.663693
-0.734178 -0.197763 0.649517
-0.767327 -0.134996 0.626885
-0.799047 -0.0735603 0.596752
-0.828155 -0.0139406 0.560326
-0.85367 0.0433668 0.519006
-0.874914 0.0978714 0.474286
-0.891577 0.149134 0.427609
-0.903719 0.196835 0.380194
-0.911702 0.240847 0.332855
-0.916066 0.281302 0.28582
-0.917352 0.318649 0.238598
-0.915877 0.353708 0.189895
-0.911432 0.387756 0.137611
-0.902839 0.422665 0.0789725
-0.887261 0.461139 0.0109301
-0.859187 0.507008 -0.0688496
-0.809514 0.564893 -0.159948
-0.727706 0.636455 -0.255674
0.30159 0.30159 0.904482
0.394485 0.195708 0.89782
0.506348 0.0681289 0.859634
0.612364 -0.0788568 0.786634
0.692381 -0.237883 0.68119
0.733823 -0.397076 0.551211
0.732631 -0.544805 0.40797
0.691504 -0.672724 0.263182
0.617069 -0.776569 0.127145
0.517556 -0.855611 0.00808987
0.401426 -0.911665 -0.087887
0.276722 -0.948072 -0.156795
0.150723 -0.968796 -0.196766
0.029672 -0.97767 -0.208039
-0.0814989 -0.977854 -0.192766
-0.179395 -0.971551 -0.154615
-0.262248 -0.95999 -0.0982142
-0.329831 -0.943608 -0.028563
-0.383209 -0.922336 0.0494726
-0.424379 -0.895882 0.13152
-0.455887 -0.863956 0.213888
-0.480471 -0.826401 0.293614
-0.500782 -0.783255 0.368414
-0.519186 -0.734749 0.436566
-0.537635 -0.681279 0.496797
-0.557601 -0.623369 0.548172
-0.580033 -0.561642 0.590017
-0.605361 -0.496786 0.621886
-0.633514 -0.429528 0.643557
-0.663982 -0.360601 0.655054
-0.695897 -0.29071 0.656669
-0.728154 -0.220508 0.648974
-0.759532 -0.150588 0.632799
-0.788819 -0.0815033 0.609197
-0.814935 -0.013811 0.579388
-0.837025 0.0518839 0.544699
-0.85455 0.114914 0.506496
-0.867338 0.174583 0.466096
-0.875589 0.230243 0.424656
-0.879825 0.281413 0.383033
-0.880783 0.327884 0.341634
-0.879247 0.369812 0.300274
-0.875848 0.407794 0.25806
-0.870807 0.442928 0.21333
-0.863596 0.476885 0.163657
-0.852421 0.512002 0.105984
-0.83341 0.551418 0.0369732
-0.799322 0.599114 -0.0463264
-0.738061 0.658857 -0.145512
-0.636455 0.727706 -0.255674
0.22983 0.38399 0.894276
0.298382 0.298382 0.906607
0.414677 0.184732 0.89102
0.539608 0.0482334 0.840534
0.648781 -0.106007 0.753556
0.723909 -0.267977 0.635723
0.756016 -0.425225 0.497618
0.74476 -0.567328 0.351385
0.695368 -0.687884 0.208036
0.615519 -0.784406 0.0764377
0.513414 -0.857359 -0.0366327
0.396937 -0.909131 -0.126184
0.273407 -0.943167 -0.188906
0.149465 -0.963232 -0.22326
0.0308827 -0.9728 -0.229579
-0.0777281 -0.974608 -0.209996
-0.173186 -0.970435 -0.168112
-0.253895 -0.961129 -0.108486
-0.319795 -0.946801 -0.0360552
-0.372131 -0.927119 0.044374
-0.413086 -0.901583 0.128482
-0.445371 -0.869736 0.212614
-0.471844 -0.831286 0.293815
-0.495206 -0.786163 0.369754
-0.517774 -0.734528 0.438609
-0.541332 -0.67676 0.498955
-0.567041 -0.613445 0.549682
-0.595405 -0.545364 0.589975
-0.62629 -0.473469 0.619345
-0.659012 -0.398824 0.637686
-0.69248 -0.322529 0.645327
-0.725386 -0.245619 0.643029
-0.756393 -0.168989 0.631911
-0.784292 -0.0933738 0.613324
-0.808112 -0.019394 0.588709
-0.827187 0.0523592 0.559483
-0.841193 0.121246 0.526966
-0.850175 0.186556 0.492341
-0.85453 0.247562 0.456608
-0.854967 0.303631 0.420522
-0.852403 0.354365 0.384491
-0.847819 0.399722 0.348461
-0.842072 0.440107 0.311803
-0.835671 0.476446 0.273227
-0.828504 0.510238 0.230734
-0.819454 0.543602 0.181635
-0.805797 0.579349 0.122657
-0.782122 0.621103 0.0501591
-0.738458 0.673155 -0.0392834
-0.658857 0.738061 -0.145512
0.195708 0.394485 0.89782
0.30543 0.30543 0.9019
0.442418 0.186368 0.87723
0.577487 0.0430358 0.815265
0.687421 -0.116605 0.716838
0.756841 -0.280355 0.590418
0.780575 -0.43572 0.448164
0.761402 -0.573607 0.302062
0.706212 -0.689238 0.161911
0.623061 -0.781383 0.0351428
0.519764 -0.851219 -0.0726036
0.403546 -0.901385 -0.157023
0.281097 -0.935266 -0.215085
0.158599 -0.956395 -0.245267
0.0415515 -0.967921 -0.247796
-0.0655602 -0.972223 -0.224688
-0.159626 -0.970725 -0.179476
-0.239136 -0.963947 -0.116706
-0.304172 -0.95172 -0.0413317
-0.356184 -0.93348 0.0418144
-0.397587 -0.908537 0.128395
-0.431318 -0.876272 0.214738
-0.460407 -0.83625 0.297844
-0.487619 -0.788282 0.375286
-0.515196 -0.732447 0.445079
-0.544664 -0.669128 0.505577
-0.576735 -0.599051 0.555441
-0.611288 -0.523296 0.593707
-0.647468 -0.443265 0.619921
-0.683897 -0.360561 0.634256
-0.71896 -0.276792 0.63756
-0.751092 -0.193372 0.631243
-0.779 -0.111395 0.617049
-0.801771 -0.0316413 0.596793
-0.818906 0.0453067 0.572137
-0.8303 0.118913 0.544483
-0.836223 0.18858 0.514945
-0.837287 0.253641 0.484373
-0.83439 0.313445 0.45337
-0.828634 0.36751 0.422258
-0.821182 0.415663 0.391005
-0.813089 0.458161 0.359132
-0.805097 0.495772 0.325621
-0.797397 0.529832 0.288852
-0.789334 0.562276 0.246572
-0.778963 0.595678 0.195916
-0.76227 0.633345 0.133488
-0.731619 0.679431 0.0557459
-0.673155 0.738458 -0.0392834
-0.564893 0.809514 -0.159948
0.116906 0.477898 0.870601
0.184732 0.414677 0.89102
0.32233 0.32233 0.89006
0.476345 0.198718 0.856508
0.618582 0.0498075 0.78414
0.727364 -0.113758 0.676758
0.790836 -0.278375 0.545056
0.807455 -0.432034 0.4017
0.782365 -0.566984 0.257748
0.723332 -0.679717 0.121556
0.638274 -0.769809 -0.000687126
0.534417 -0.838785 -0.104103
0.418352 -0.889315 -0.184663
0.296301 -0.924637 -0.239273
0.174207 -0.948048 -0.26619
0.0575269 -0.962413 -0.265428
-0.0491985 -0.969801 -0.238885
-0.142815 -0.971321 -0.190105
-0.221858 -0.967197 -0.123734
-0.286583 -0.957005 -0.044855
-0.33871 -0.939971 0.0415878
-0.380977 -0.915231 0.131183
-0.416622 -0.882006 0.220207
-0.448887 -0.839712 0.305587
-0.480599 -0.788024 0.384764
-0.513843 -0.72695 0.455531
-0.549739 -0.656939 0.515963
-0.58834 -0.578986 0.564474
-0.6287 -0.494681 0.600023
-0.66913 -0.406104 0.62237
-0.707612 -0.315553 0.632227
-0.74223 -0.225166 0.631186
-0.771493 -0.136619 0.621397
-0.794475 -0.0510253 0.60515
-0.810804 0.030957 0.584498
-0.820581 0.108891 0.561061
-0.824298 0.182347 0.535987
-0.822777 0.250808 0.510033
-0.817112 0.313703 0.483651
-0.808587 0.370544 0.457039
-0.798546 0.421095 0.43012
-0.788235 0.465509 0.402476
-0.778605 0.504427 0.373267
-0.770098 0.539035 0.34116
-0.7624 0.5711 0.304288
-0.754112 0.602985 0.260237
-0.742202 0.637703 0.206088
-0.72088 0.679045 0.138675
-0.679431 0.731619 0.0557459
-0.599114 0.799322 -0.0463264
0.0681289 0.506348 0.859634
0.186368 0.442418 0.87723
0.347467 0.347467 0.870938
0.514922 0.21964 0.828621
0.661298 0.0661856 0.747198
0.767326 -0.100027 0.633408
0.824963 -0.264793 0.499319
0.835805 -0.416971 0.357162
0.806554 -0.550054 0.21659
0.745193 -0.66147 0.0845272
0.659142 -0.751259 -0.0337993
0.554942 -0.821043 -0.133894
0.438629 -0.873389 -0.211651
0.316139 -0.911344 -0.263643
0.193405 -0.937971 -0.287757
0.076052 -0.955875 -0.283757
-0.0311748 -0.966833 -0.253499
-0.125009 -0.971653 -0.200656
-0.204053 -0.970276 -0.130102
-0.268811 -0.962038 -0.0471532
-0.321382 -0.945969 0.0430792
-0.364925 -0.921038 0.136088
-0.403048 -0.8863 0.228088
-0.43922 -0.841 0.315919
-0.476257 -0.784666 0.396836
-0.51593 -0.717265 0.468344
-0.558702 -0.639432 0.528185
-0.603694 -0.552661 0.57456
-0.648946 -0.459334 0.606532
-0.691949 -0.362432 0.624379
-0.730286 -0.264987 0.629655
-0.76213 -0.169506 0.62484
-0.786453 -0.0776646 0.612748
-0.802971 0.00964814 0.59594
-0.811979 0.0920283 0.576387
-0.814195 0.169219 0.555385
-0.810659 0.240896 0.533668
-0.802664 0.306631 0.511574
-0.791681 0.365999 0.489169
-0.779239 0.418755 0.466295
-0.766771 0.464994 0.442541
-0.755433 0.505263 0.417169
-0.745893 0.540633 0.38905
-0.738115 0.572718 0.356623
-0.731103 0.603694 0.317872
-0.722511 0.636309 0.27035
-0.707883 0.673965 0.211362
-0.679045 0.72088 0.138675
-0.621103 0.782122 0.0501591
-0.507008 0.859187 -0.0688496
-0.0192056 0.576823 0.816644
0.0482334 0.539608 0.840534
0.198718 0.476345 0.856508
0.379069 0.379069 0.844164
0.556196 0.247303 0.793402
0.703808 0.0903427 0.704622
0.805882 -0.0773446 0.587002
0.858128 -0.241644 0.453017
0.864583 -0.392503 0.313747
0.832747 -0.52452 0.177234
0.770302 -0.635784 0.0491233
0.683926 -0.726559 -0.0660068
0.579437 -0.798406 -0.163707
0.46242 -0.853703 -0.239498
0.338716 -0.895271 -0.289416
0.214461 -0.925935 -0.310888
0.095632 -0.948032 -0.303464
-0.01271 -0.963039 -0.269061
-0.107177 -0.971457 -0.211625
-0.186508 -0.972943 -0.136374
-0.251572 -0.966601 -0.0489221
-0.304973 -0.951277 0.0454314
-0.35039 -0.925763 0.142092
-0.391842 -0.888925 0.237217
-0.432976 -0.839799 0.32752
-0.476444 -0.777755 0.409998
-0.523416 -0.702806 0.481767
-0.573342 -0.615995 0.540211
-0.624112 -0.519669 0.583463
-0.672676 -0.41733 0.611018
-0.715945 -0.312983 0.624071
-0.75157 -0.210222 0.625259
-0.778299 -0.111573 0.617902
-0.79589 -0.0183761 0.605162
-0.804839 0.0688816 0.589483
-0.80611 0.150079 0.572419
-0.800979 0.225101 0.554763
-0.790952 0.293701 0.536781
-0.777696 0.355567 0.518422
-0.76293 0.410489 0.499435
-0.748284 0.458546 0.479382
-0.735111 0.500233 0.45758
-0.724296 0.536534 0.433044
-0.716047 0.568949 0.404441
-0.709685 0.599492 0.370076
-0.703361 0.630681 0.327911
-0.693552 0.66557 0.275687
-0.673965 0.707883 0.211362
-0.633345 0.76227 0.133488
-0.551418 0.83341 0.0369732
-0.0788568 0.612364 0.786634
0.0430358 0.577487 0.815265
0.21964 0.514922 0.828621
0.415151 0.415151 0.809505
0.598095 0.279841 0.75098
0.744357 0.120494 0.656821
0.841719 -0.0475119 0.537821
0.889268 -0.210694 0.405968
0.89272 -0.360209 0.27074
0.859716 -0.491618 0.138563
0.79725 -0.603486 0.0140264
0.71109 -0.696147 -0.0986442
0.606325 -0.771 -0.194751
0.488202 -0.830174 -0.269201
0.36265 -0.87623 -0.317342
0.236212 -0.911719 -0.336114
0.11537 -0.938676 -0.324925
0.00555908 -0.958246 -0.285892
-0.0897551 -0.970593 -0.223366
-0.169563 -0.975089 -0.143003
-0.235248 -0.97061 -0.0507423
-0.290046 -0.955811 0.0479447
-0.338235 -0.929287 0.148398
-0.384236 -0.889662 0.246708
-0.431746 -0.835709 0.339391
-0.482956 -0.766666 0.423057
-0.538008 -0.682773 0.494337
-0.594898 -0.585874 0.550317
-0.650064 -0.479631 0.589382
-0.699561 -0.368947 0.611957
-0.740267 -0.258724 0.620538
-0.770517 -0.152686 0.618862
-0.790054 -0.0529172 0.610749
-0.799584 0.0398364 0.599232
-0.80036 0.125522 0.586232
-0.793934 0.204228 0.572678
-0.782051 0.275912 0.55881
-0.766591 0.340409 0.544481
-0.749478 0.397584 0.529348
-0.732543 0.447533 0.512927
-0.717345 0.49073 0.494571
-0.704978 0.528114 0.473394
-0.695877 0.561105 0.448237
-0.689627 0.591589 0.417657
-0.684751 0.621899 0.379945
-0.678387 0.654796 0.333217
-0.66557 0.693552 0.275687
-0.637703 0.742202 0.206088
-0.579349 0.805797 0.122657
-0.461139 0.887261 0.0109301
-0.173688 0.660407 0.730544
-0.106007 0.648781 0.753556
0.0498075 0.618582 0.78414
0.247303 0.556196 0.793402
0.453646 0.453646 0.767079
0.638671 0.315393 0.701873
0.781451 0.154908 0.604432
0.873756 -0.0121936 0.486212
0.917459 -0.17347 0.35802
0.919225 -0.321336 0.227528
0.88632 -0.452222 0.0996626
0.824761 -0.565061 -0.0217973
0.739291 -0.660179 -0.132712
0.634281 -0.738753 -0.227886
0.514748 -0.802611 -0.301413
0.386893 -0.853997 -0.347856
0.257844 -0.895127 -0.363682
0.134704 -0.927664 -0.348274
0.0232844 -0.952357 -0.304095
-0.0729672 -0.969003 -0.236027
-0.153449 -0.976673 -0.150211
-0.220218 -0.974015 -0.0529113
-0.277264 -0.959478 0.0502652
-0.329504 -0.931409 0.154611
-0.381678 -0.888107 0.256099
-0.437266 -0.82804 0.350924
-0.497532 -0.750408 0.435144
-0.561001 -0.656048 0.504855
-0.623789 -0.548202 0.557101
-0.680953 -0.432349 0.591082
-0.728256 -0.314807 0.60872
-0.76334 -0.200887 0.613967
-0.785806 -0.0938115 0.611317
-0.796586 0.00516387 0.604504
-0.797286 0.0959484 0.595927
-0.789796 0.178812 0.586728
-0.776145 0.253935 0.577162
-0.758458 0.32132 0.567004
-0.738885 0.380937 0.55582
-0.719473 0.432923 0.543081
-0.701993 0.477763 0.528155
-0.687754 0.516379 0.510242
-0.677405 0.550148 0.488323
-0.670765 0.580873 0.461151
-0.666653 0.61074 0.427283
-0.662676 0.642279 0.385147
-0.654796 0.678387 0.333217
-0.636309 0.722511 0.27035
-0.595678 0.778963 0.195916
-0.512002 0.852421 0.105984
-0.237883 0.692381 0.68119
-0.116605 0.687421 0.716838
0.0661856 0.661298 0.747198
0.279841 0.598095 0.75098
0.492579 0.492579 0.717448
0.67629 0.352231 0.646967
0.813968 0.192007 0.548261
0.901194 0.027147 0.432566
0.941945 -0.13123 0.309061
0.943215 -0.276831 0.183601
0.91151 -0.406908 0.0598007
0.851667 -0.520735 -0.0591378
0.767322 -0.618612 -0.168927
0.662137 -0.701468 -0.263662
0.541015 -0.770773 -0.336469
0.410593 -0.828369 -0.381075
0.27874 -0.876031 -0.393539
0.153239 -0.914944 -0.373357
0.0402243 -0.945376 -0.323491
-0.0570194 -0.966709 -0.249444
-0.138481 -0.977701 -0.157874
-0.207052 -0.976764 -0.0553343
-0.267568 -0.962109 0.052468
-0.325566 -0.931751 0.160767
-0.385903 -0.883563 0.265321
-0.451386 -0.815689 0.361805
-0.521655 -0.727563 0.445565
-0.592943 -0.621279 0.51228
-0.65931 -0.502246 0.559516
-0.715021 -0.378061 0.58806
-0.756579 -0.255985 0.601714
-0.783209 -0.140895 0.605584
-0.796057 -0.0349185 0.604213
-0.797163 0.0616512 0.600609
-0.788843 0.14923 0.596203
-0.773479 0.228229 0.591305
-0.753485 0.298846 0.58562
-0.731269 0.36117 0.578621
-0.70912 0.415404 0.569727
-0.689042 0.462061 0.55832
-0.672562 0.50207 0.543677
-0.660545 0.5368 0.524906
-0.653023 0.568008 0.500927
-0.64906 0.59778 0.470511
-0.646611 0.628468 0.432344
-0.642279 0.662676 0.385147
-0.630681 0.703361 0.327911
-0.602985 0.754112 0.260237
-0.543602 0.819454 0.181635
-0.422665 0.902839 0.0789725
-0.335496 0.712737 0.615993
-0.267977 0.723909 0.635723
-0.113758 0.727364 0.676758
0.0903427 0.703808 0.704622
0.315393 0.638671 0.701873
0.530237 0.530237 0.661587
0.709742 0.388887 0.587395
0.841183 0.230455 0.489185
0.923505 0.0693039 0.377273
0.96213 -0.0849662 0.259012
0.9639 -0.227377 0.138555
0.934296 -0.356021 0.018421
0.876849 -0.470556 -0.098548
0.794023 -0.571296 -0.207719
0.688796 -0.658916 -0.302306
0.566052 -0.734465 -0.374362
0.433009 -0.799254 -0.41677
0.298382 -0.854458 -0.425287
0.170639 -0.900631 -0.399683
0.0561233 -0.937454 -0.343556
-0.0422293 -0.963843 -0.263102
-0.12519 -0.978233 -0.165491
-0.196625 -0.97879 -0.0575263
-0.262266 -0.963426 0.0550075
-0.328153 -0.929704 0.167234
-0.398881 -0.874947 0.274519
-0.47586 -0.797079 0.371782
-0.556177 -0.696362 0.453594
-0.633217 -0.577162 0.515674
-0.699415 -0.447792 0.557047
-0.749511 -0.317678 0.580787
-0.781935 -0.19397 0.592414
-0.797947 -0.0801982 0.597368
-0.80011 0.0228862 0.599416
-0.791286 0.11578 0.600385
-0.774297 0.199139 0.600673
-0.751908 0.273378 0.599916
-0.72683 0.338728 0.597479
-0.701634 0.395469 0.592718
-0.678584 0.444155 0.585021
-0.659447 0.485742 0.573746
-0.645306 0.521609 0.558125
-0.636401 0.553507 0.537236
-0.632008 0.583465 0.510034
-0.630347 0.613707 0.475422
-0.628468 0.646611 0.432344
-0.621899 0.684751 0.379945
-0.603694 0.731103 0.317872
-0.562276 0.789334 0.246572
-0.476885 0.863596 0.163657
-0.397076 0.733823 0.551211
-0.280355 0.756841 0.590418
-0.100027 0.767326 0.633408
0.120494 0.744357 0.656821
0.352231 0.67629 0.646967
0.565284 0.565284 0.600755
0.738271 0.424232 0.524389
0.862724 0.269222 0.42805
0.940379 0.11335 0.320686
0.977526 -0.0354152 0.207817
0.980528 -0.173449 0.0920912
0.953691 -0.29976 -0.0248467
0.899166 -0.414499 -0.140323
0.81822 -0.518089 -0.249199
0.713161 -0.610969 -0.343682
0.588938 -0.693671 -0.414695
0.453446 -0.766794 -0.454327
0.31629 -0.830689 -0.458167
0.186555 -0.885079 -0.426418
0.0706274 -0.928937 -0.363439
-0.0291098 -0.96067 -0.276163
-0.114391 -0.978389 -0.172252
-0.190165 -0.979994 -0.0587219
-0.263041 -0.963006 0.0585623
-0.339309 -0.924349 0.174494
-0.42265 -0.860714 0.283794
-0.511976 -0.770179 0.380402
-0.600796 -0.654947 0.458354
-0.679669 -0.522929 0.514388
-0.740817 -0.385521 0.550058
-0.781164 -0.252801 0.570854
-0.801839 -0.130448 0.583127
-0.805994 -0.0200858 0.591583
-0.797177 0.0787462 0.598588
-0.778766 0.166963 0.604687
-0.753953 0.245234 0.609439
-0.725808 0.313954 0.612075
-0.697231 0.373493 0.61186
-0.670794 0.424451 0.608175
-0.648537 0.46782 0.600453
-0.631781 0.505009 0.588064
-0.620971 0.537786 0.570247
-0.615578 0.56816 0.54613
-0.614035 0.598277 0.514807
-0.613707 0.630347 0.475422
-0.61074 0.666653 0.427283
-0.599492 0.709685 0.370076
-0.5711 0.7624 0.304288
-0.510238 0.828504 0.230734
-0.387756 0.911432 0.137611
-0.491716 0.725232 0.481927
-0.425225 0.756016 0.497618
-0.278375 0.790836 0.545056
-0.0773446 0.805882 0.587002
0.154908 0.781451 0.604432
0.388887 0.709742 0.587395
0.596812 0.596812 0.536312
0.761517 0.457498 0.459116
0.878488 0.307578 0.365588
0.951642 0.158618 0.263093
0.9877 0.0168858 0.155445
0.992342 -0.115404 0.0440289
0.968654 -0.238299 -0.0701644
0.917406 -0.352616 -0.184467
0.838672 -0.459031 -0.293121
0.734112 -0.557771 -0.387262
0.608769 -0.648719 -0.456688
0.471247 -0.731503 -0.492778
0.331995 -0.805355 -0.491104
0.200584 -0.868935 -0.452458
0.0832453 -0.920383 -0.382055
-0.0183944 -0.957577 -0.287589
-0.10719 -0.978323 -0.177186
-0.18924 -0.980213 -0.0580527
-0.27192 -0.960202 0.0638127
-0.361281 -0.914349 0.18287
-0.458984 -0.838776 0.292897
-0.559971 -0.732663 0.386829
-0.653495 -0.601888 0.458993
-0.728573 -0.458891 0.508527
-0.779554 -0.317139 0.54011
-0.806898 -0.185455 0.560823
-0.814351 -0.0669997 0.576492
-0.806326 0.0384281 0.590222
-0.786894 0.132006 0.602803
-0.759761 0.214713 0.613727
-0.728418 0.287148 0.622056
-0.696154 0.349783 0.626914
-0.665903 0.403272 0.627649
-0.640031 0.448646 0.623761
-0.620128 0.48735 0.614761
-0.606865 0.521187 0.600065
-0.599897 0.552179 0.578983
-0.597836 0.58243 0.550788
-0.598277 0.614035 0.514807
-0.59778 0.64906 0.470511
-0.591589 0.689627 0.417657
-0.572718 0.738115 0.356623
-0.529832 0.797397 0.288852
-0.442928 0.870807 0.21333
-0.544805 0.732631 0.40797
-0.43572 0.780575 0.448164
-0.264793 0.824963 0.499319
-0.0475119 0.841719 0.537821
0.192007 0.813968 0.548261
0.424232 0.738271 0.524389
0.624311 0.624311 0.469544
0.779429 0.48824 0.392571
0.88854 0.34506 0.302374
0.957192 0.204643 0.204705
0.992221 0.0715136 0.101895
0.998546 -0.0536007 -0.00567489
0.978078 -0.171951 -0.117458
0.930286 -0.285238 -0.230668
0.854101 -0.394557 -0.338875
0.750536 -0.499941 -0.432152
0.624696 -0.600437 -0.499229
0.485812 -0.694365 -0.53089
0.345051 -0.779479 -0.522831
0.212277 -0.853127 -0.476563
0.0933605 -0.912522 -0.398229
-0.0110182 -0.955032 -0.296298
-0.104966 -0.978171 -0.17934
-0.195749 -0.979124 -0.0547663
-0.291227 -0.954003 0.0711662
-0.396282 -0.897781 0.192224
-0.508828 -0.806521 0.301028
-0.618282 -0.682367 0.390003
-0.71029 -0.53689 0.455233
-0.775222 -0.386758 0.499449
-0.811854 -0.245094 0.529926
-0.824368 -0.117644 0.553694
-0.818248 -0.00488503 0.574844
-0.798457 0.0945829 0.594576
-0.769315 0.182123 0.612361
-0.734792 0.258601 0.627062
-0.698618 0.324624 0.637614
-0.664158 0.380905 0.643277
-0.634167 0.428512 0.643592
-0.610562 0.468934 0.638213
-0.594267 0.504014 0.626751
-0.585133 0.535805 0.608714
-0.581932 0.566405 0.583558
-0.58243 0.597836 0.550788
-0.583465 0.632008 0.510034
-0.580873 0.670765 0.461151
-0.568949 0.716047 0.404441
-0.539035 0.770098 0.34116
-0.476446 0.835671 0.273227
-0.353708 0.915877 0.189895
-0.631507 0.696903 0.339889
-0.567328 0.74476 0.351385
-0.432034 0.807455 0.4017