# vtk DataFile Version 2.0
tmp/0.000.00-10.000.000.001.0094.vtk
ASCII
DATASET UNSTRUCTURED_GRID
POINTS 5100 float
0.5 0 0
1.5 0 0
2.5 0 0
3.5 0 0
4.5 0 0
5.5 0 0
6.5 0 0
7.5 0 0
8.5 0 0
9.5 0 0
10.5 0 0
11.5 0 0
12.5 0 0
13.5 0 0
14.5 0 0
15.5 0 0
16.5 0 0
17.5 0 0
18.5 0 0
19.5 0 0
20.5 0 0
21.5 0 0
22.5 0 0
23.5 0 0
24.5 0 0
25.5 0 0
26.5 0 0
27.5 0 0
28.5 0 0
29.5 0 0
30.5 0 0
31.5 0 0
32.5 0 0
33.5 0 0
34.5 0 0
35.5 0 0
36.5 0 0
37.5 0 0
38.5 0 0
39.5 0 0
40.5 0 0
41.5 0 0
42.5 0 0
43.5 0 0
44.5 0 0
45.5 0 0
46.5 0 0
47.5 0 0
48.5 0 0
49.5 0 0
0 0.5 0
1 0.5 0
2 0.5 0
3 0.5 0
4 0.5 0
5 0.5 0
6 0.5 0
7 0.5 0
8 0.5 0
9 0.5 0
10 0.5 0
11 0.5 0
12 0.5 0
13 0.5 0
14 0.5 0
15 0.5 0
16 0.5 0
17 0.5 0
18 0.5 0
19 0.5 0
20 0.5 0
21 0.5 0
22 0.5 0
23 0.5 0
24 0.5 0
25 0.5 0
26 0.5 0
27 0.5 0
28 0.5 0
29 0.5 0
30 0.5 0
31 0.5 0
32 0.5 0
33 0.5 0
34 0.5 0
35 0.5 0
36 0.5 0
37 0.5 0
38 0.5 0
39 0.5 0
40 0.5 0
41 0.5 0
42 0.5 0
43 0.5 0
44 0.5 0
45 0.5 0
46 0.5 0
47 0.5 0
48 0.5 0
49 0.5 0
50 0.5 0
0.5 1 0
1.5 1 0
2.5 1 0
3.5 1 0
4.5 1 0
5.5 1 0
6.5 1 0
7.5 1 0
8.5 1 0
9.5 1 0
10.5 1 0
11.5 1 0
12.5 1 0
13.5 1 0
14.5 1 0
15.5 1 0
16.5 1 0
17.5 1 0
18.5 1 0
19.5 1 0
20.5 1 0
21.5 1 0
22.5 1 0
23.5 1 0
24.5 1 0
25.5 1 0
26.5 1 0
27.5 1 0
28.5 1 0
29.5 1 0
30.5 1 0
31.5 1 0
32.5 1 0
33.5 1 0
34.5 1 0
35.5 1 0
36.5 1 0
37.5 1 0
38.5 1 0
39.5 1 0
40.5 1 0
41.5 1 0
42.5 1 0
43.5 1 0
44.5 1 0
45.5 1 0
46.5 1 0
47.5 1 0
48.5 1 0
49.5 1 0
0 1.5 0
1 1.5 0
2 1.5 0
3 1.5 0
4 1.5 0
5 1.5 0
6 1.5 0
7 1.5 0
8 1.5 0
9 1.5 0
10 1.5 0
11 1.5 0
12 1.5 0
13 1.5 0
14 1.5 0
15 1.5 0
16 1.5 0
17 1.5 0
18 1.5 0
19 1.5 0
20 1.5 0
21 1.5 0
22 1.5 0
23 1.5 0
24 1.5 0
25 1.5 0
26 1.5 0
27 1.5 0
28 1.5 0
29 1.5 0
30 1.5 0
31 1.5 0
32 1.5 0
33 1.5 0
34 1.5 0
35 1.5 0
36 1.5 0
37 1.5 0
38 1.5 0
39 1.5 0
40 1.5 0
41 1.5 0
42 1.5 0
43 1.5 0
44 1.5 0
45 1.5 0
46 1.5 0
47 1.5 0
48 1.5 0
49 1.5 0
50 1.5 0
0.5 2 0
1.5 2 0
2.5 2 0
3.5 2 0
4.5 2 0
5.5 2 0
6.5 2 0
7.5 2 0
8.5 2 0
9.5 2 0
10.5 2 0
11.5 2 0
12.5 2 0
13.5 2 0
14.5 2 0
15.5 2 0
16.5 2 0
17.5 2 0
18.5 2 0
19.5 2 0
20.5 2 0
21.5 2 0
22.5 2 0
23.5 2 0
24.5 2 0
25.5 2 0
26.5 2 0
27.5 2 0
28.5 2 0
29.5 2 0
30.5 2 0
31.5 2 0
32.5 2 0
33.5 2 0
34.5 2 0
35.5 2 0
36.5 2 0
37.5 2 0
38.5 2 0
39.5 2 0
40.5 2 0
41.5 2 0
42.5 2 0
43.5 2 0
44.5 2 0
45.5 2 0
46.5 2 0
47.5 2 0
48.5 2 0
49.5 2 0
0 2.5 0
1 2.5 0
2 2.5 0
3 2.5 0
4 2.5 0
5 2.5 0
6 2.5 0
7 2.5 0
8 2.5 0
9 2.5 0
10 2.5 0
11 2.5 0
12 2.5 0
13 2.5 0
14 2.5 0
15 2.5 0
16 2.5 0
17 2.5 0
18 2.5 0
19 2.5 0
20 2.5 0
21 2.5 0
22 2.5 0
23 2.5 0
24 2.5 0
25 2.5 0
26 2.5 0
27 2.5 0
28 2.5 0
29 2.5 0
30 2.5 0
31 2.5 0
32 2.5 0
33 2.5 0
34 2.5 0
35 2.5 0
36 2.5 0
37 2.5 0
38 2.5 0
39 2.5 0
40 2.5 0
41 2.5 0
42 2.5 0
43 2.5 0
44 2.5 0
45 2.5 0
46 2.5 0
47 2.5 0
48 2.5 0
49 2.5 0
50 2.5 0
0.5 3 0
1.5 3 0
2.5 3 0
3.5 3 0
4.5 3 0
5.5 3 0
6.5 3 0
7.5 3 0
8.5 3 0
9.5 3 0
10.5 3 0
11.5 3 0
12.5 3 0
13.5 3 0
14.5 3 0
15.5 3 0
16.5 3 0
17.5 3 0
18.5 3 0
19.5 3 0
20.5 3 0
21.5 3 0
22.5 3 0
23.5 3 0
24.5 3 0
25.5 3 0
26.5 3 0
27.5 3 0
28.5 3 0
29.5 3 0
30.5 3 0
31.5 3 0
32.5 3 0
33.5 3 0
34.5 3 0
35.5 3 0
36.5 3 0
37.5 3 0
38.5 3 0
39.5 3 0
40.5 3 0
41.5 3 0
42.5 3 0
43.5 3 0
44.5 3 0
45.5 3 0
46.5 3 0
47.5 3 0
48.5 3 0
49.5 3 0
0 3.5 0
1 3.5 0
2 3.5 0
3 3.5 0
4 3.5 0
5 3.5 0
6 3.5 0
7 3.5 0
8 3.5 0
9 3.5 0
10 3.5 0
11 3.5 0
12 3.5 0
13 3.5 0
14 3.5 0
15 3.5 0
16 3.5 0
17 3.5 0
18 3.5 0
19 3.5 0
20 3.5 0
21 3.5 0
22 3.5 0
23 3.5 0
24 3.5 0
25 3.5 0
26 3.5 0
27 3.5 0
28 3.5 0
29 3.5 0
30 3.5 0
31 3.5 0
32 3.5 0
33 3.5 0
34 3.5 0
35 3.5 0
36 3.5 0
37 3.5 0
38 3.5 0
39 3.5 0
40 3.5 0
41 3.5 0
42 3.5 0
43 3.5 0
44 3.5 0
45 3.5 0
46 3.5 0
47 3.5 0
48 3.5 0
49 3.5 0
50 3.5 0
0.5 4 0
1.5 4 0
2.5 4 0
3.5 4 0
4.5 4 0
5.5 4 0
6.5 4 0
7.5 4 0
8.5 4 0
9.5 4 0
10.5 4 0
11.5 4 0
12.5 4 0
13.5 4 0
14.5 4 0
15.5 4 0
16.5 4 0
17.5 4 0
18.5 4 0
19.5 4 0
20.5 4 0
21.5 4 0
22.5 4 0
23.5 4 0
24.5 4 0
25.5 4 0
26.5 4 0
27.5 4 0
28.5 4 0
29.5 4 0
30.5 4 0
31.5 4 0
32.5 4 0
33.5 4 0
34.5 4 0
35.5 4 0
36.5 4 0
37.5 4 0
38.5 4 0
39.5 4 0
40.5 4 0
41.5 4 0
42.5 4 0
43.5 4 0
44.5 4 0
45.5 4 0
46.5 4 0
47.5 4 0
48.5 4 0
49.5 4 0
0 4.5 0
1 4.5 0
2 4.5 0
3 4.5 0
4 4.5 0
5 4.5 0
6 4.5 0
7 4.5 0
8 4.5 0
9 4.5 0
10 4.5 0
11 4.5 0
12 4.5 0
13 4.5 0
14 4.5 0
15 4.5 0
16 4.5 0
17 4.5 0
18 4.5 0
19 4.5 0
20 4.5 0
21 4.5 0
22 4.5 0
23 4.5 0
24 4.5 0
25 4.5 0
26 4.5 0
27 4.5 0
28 4.5 0
29 4.5 0
30 4.5 0
31 4.5 0
32 4.5 0
33 4.5 0
34 4.5 0
35 4.5 0
36 4.5 0
37 4.5 0
38 4.5 0
39 4.5 0
40 4.5 0
41 4.5 0
42 4.5 0
43 4.5 0
44 4.5 0
45 4.5 0
46 4.5 0
47 4.5 0
48 4.5 0
49 4.5 0
50 4.5 0
0.5 5 0
1.5 5 0
2.5 5 0
3.5 5 0
4.5 5 0
5.5 5 0
6.5 5 0
7.5 5 0
8.5 5 0
9.5 5 0
10.5 5 0
11.5 5 0
12.5 5 0
13.5 5 0
14.5 5 0
15.5 5 0
16.5 5 0
17.5 5 0
18.5 5 0
19.5 5 0
20.5 5 0
21.5 5 0
22.5 5 0
23.5 5 0
24.5 5 0
25.5 5 0
26.5 5 0
27.5 5 0
28.5 5 0
29.5 5 0
30.5 5 0
31.5 5 0
32.5 5 0
33.5 5 0
34.5 5 0
35.5 5 0
36.5 5 0
37.5 5 0
38.5 5 0
39.5 5 0
40.5 5 0
41.5 5 0
42.5 5 0
43.5 5 0
44.5 5 0
45.5 5 0
46.5 5 0
47.5 5 0
48.5 5 0
49.5 5 0
0 5.5 0
1 5.5 0
2 5.5 0
3 5.5 0
4 5.5 0
5 5.5 0
6 5.5 0
7 5.5 0
8 5.5 0
9 5.5 0
10 5.5 0
11 5.5 0
12 5.5 0
13 5.5 0
14 5.5 0
15 5.5 0
16 5.5 0
17 5.5 0
18 5.5 0
19 5.5 0
20 5.5 0
21 5.5 0
22 5.5 0
23 5.5 0
24 5.5 0
25 5.5 0
26 5.5 0
27 5.5 0
28 5.5 0
29 5.5 0
30 5.5 0
31 5.5 0
32 5.5 0
33 5.5 0
34 5.5 0
35 5.5 0
36 5.5 0
37 5.5 0
38 5.5 0
39 5.5 0
40 5.5 0
41 5.5 0
42 5.5 0
43 5.5 0
44 5.5 0
45 5.5 0
46 5.5 0
47 5.5 0
48 5.5 0
49 5.5 0
50 5.5 0
0.5 6 0
1.5 6 0
2.5 6 0
3.5 6 0
4.5 6 0
5.5 6 0
6.5 6 0
7.5 6 0
8.5 6 0
9.5 6 0
10.5 6 0
11.5 6 0
12.5 6 0
13.5 6 0
14.5 6 0
15.5 6 0
16.5 6 0
17.5 6 0
18.5 6 0
19.5 6 0
20.5 6 0
21.5 6 0
22.5 6 0
23.5 6 0
24.5 6 0
25.5 6 0
26.5 6 0
27.5 6 0
28.5 6 0
29.5 6 0
30.5 6 0
31.5 6 0
32.5 6 0
33.5 6 0
34.5 6 0
35.5 6 0
36.5 6 0
37.5 6 0
38.5 6 0
39.5 6 0
40.5 6 0
41.5 6 0
42.5 6 0
43.5 6 0
44.5 6 0
45.5 6 0
46.5 6 0
47.5 6 0
48.5 6 0
49.5 6 0
0 6.5 0
1 6.5 0
2 6.5 0
3 6.5 0
4 6.5 0
5 6.5 0
6 6.5 0
7 6.5 0
8 6.5 0
9 6.5 0
10 6.5 0
11 6.5 0
12 6.5 0
13 6.5 0
14 6.5 0
15 6.5 0
16 6.5 0
17 6.5 0
18 6.5 0
19 6.5 0
20 6.5 0
21 6.5 0
22 6.5 0
23 6.5 0
24 6.5 0
25 6.5 0
26 6.5 0
27 6.5 0
28 6.5 0
29 6.5 0
30 6.5 0
31 6.5 0
32 6.5 0
33 6.5 0
34 6.5 0
35 6.5 0
36 6.5 0
37 6.5 0
38 6.5 0
39 6.5 0
40 6.5 0
41 6.5 0
42 6.5 0
43 6.5 0
44 6.5 0
45 6.5 0
46 6.5 0
47 6.5 0
48 6.5 0
49 6.5 0
50 6.5 0
0.5 7 0
1.5 7 0
2.5 7 0
3.5 7 0
4.5 7 0
5.5 7 0
6.5 7 0
7.5 7 0
8.5 7 0
9.5 7 0
10.5 7 0
11.5 7 0
12.5 7 0
13.5 7 0
14.5 7 0
15.5 7 0
16.5 7 0
17.5 7 0
18.5 7 0
19.5 7 0
20.5 7 0
21.5 7 0
22.5 7 0
23.5 7 0
24.5 7 0
25.5 7 0
26.5 7 0
27.5 7 0
28.5 7 0
29.5 7 0
30.5 7 0
31.5 7 0
32.5 7 0
33.5 7 0
34.5 7 0
35.5 7 0
36.5 7 0
37.5 7 0
38.5 7 0
39.5 7 0
40.5 7 0
41.5 7 0
42.5 7 0
43.5 7 0
44.5 7 0
45.5 7 0
46.5 7 0
47.5 7 0
48.5 7 0
49.5 7 0
0 7.5 0
1 7.5 0
2 7.5 0
3 7.5 0
4 7.5 0
5 7.5 0
6 7.5 0
7 7.5 0
8 7.5 0
9 7.5 0
10 7.5 0
11 7.5 0
12 7.5 0
13 7.5 0
14 7.5 0
15 7.5 0
16 7.5 0
17 7.5 0
18 7.5 0
19 7.5 0
20 7.5 0
21 7.5 0
22 7.5 0
23 7.5 0
24 7.5 0
25 7.5 0
26 7.5 0
27 7.5 0
28 7.5 0
29 7.5 0
30 7.5 0
31 7.5 0
32 7.5 0
33 7.5 0
34 7.5 0
35 7.5 0
36 7.5 0
37 7.5 0
38 7.5 0
39 7.5 0
40 7.5 0
41 7.5 0
42 7.5 0
43 7.5 0
44 7.5 0
45 7.5 0
46 7.5 0
47 7.5 0
48 7.5 0
49 7.5 0
50 7.5 0
0.5 8 0
1.5 8 0
2.5 8 0
3.5 8 0
4.5 8 0
5.5 8 0
6.5 8 0
7.5 8 0
8.5 8 0
9.5 8 0
10.5 8 0
11.5 8 0
12.5 8 0
13.5 8 0
14.5 8 0
15.5 8 0
16.5 8 0
17.5 8 0
18.5 8 0
19.5 8 0
20.5 8 0
21.5 8 0
22.5 8 0
23.5 8 0
24.5 8 0
25.5 8 0
26.5 8 0
27.5 8 0
28.5 8 0
29.5 8 0
30.5 8 0
31.5 8 0
32.5 8 0
33.5 8 0
34.5 8 0
35.5 8 0
36.5 8 0
37.5 8 0
38.5 8 0
39.5 8 0
40.5 8 0
41.5 8 0
42.5 8 0
43.5 8 0
44.5 8 0
45.5 8 0
46.5 8 0
47.5 8 0
48.5 8 0
49.5 8 0
0 8.5 0
1 8.5 0
2 8.5 0
3 8.5 0
4 8.5 0
5 8.5 0
6 8.5 0
7 8.5 0
8 8.5 0
9 8.5 0
10 8.5 0
11 8.5 0
12 8.5 0
13 8.5 0
14 8.5 0
15 8.5 0
16 8.5 0
17 8.5 0
18 8.5 0
19 8.5 0
20 8.5 0
21 8.5 0
22 8.5 0
23 8.5 0
24 8.5 0
25 8.5 0
26 8.5 0
27 8.5 0
28 8.5 0
29 8.5 0
30 8.5 0
31 8.5 0
32 8.5 0
33 8.5 0
34 8.5 0
35 8.5 0
36 8.5 0
37 8.5 0
38 8.5 0
39 8.5 0
40 8.5 0
41 8.5 0
42 8.5 0
43 8.5 0
44 8.5 0
45 8.5 0
46 8.5 0
47 8.5 0
48 8.5 0
49 8.5 0
50 8.5 0
0.5 9 0
1.5 9 0
2.5 9 0
3.5 9 0
4.5 9 0
5.5 9 0
6.5 9 0
7.5 9 0
8.5 9 0
9.5 9 0
10.5 9 0
11.5 9 0
12.5 9 0
13.5 9 0
14.5 9 0
15.5 9 0
16.5 9 0
17.5 9 0
18.5 9 0
19.5 9 0
20.5 9 0
21.5 9 0
22.5 9 0
23.5 9 0
24.5 9 0
25.5 9 0
26.5 9 0
27.5 9 0
28.5 9 0
29.5 9 0
30.5 9 0
31.5 9 0
32.5 9 0
33.5 9 0
34.5 9 0
35.5 9 0
36.5 9 0
37.5 9 0
38.5 9 0
39.5 9 0
40.5 9 0
41.5 9 0
42.5 9 0
43.5 9 0
44.5 9 0
45.5 9 0
46.5 9 0
47.5 9 0
48.5 9 0
49.5 9 0
0 9.5 0
1 9.5 0
2 9.5 0
3 9.5 0
4 9.5 0
5 9.5 0
6 9.5 0
7 9.5 0
8 9.5 0
9 9.5 0
10 9.5 0
11 9.5 0
12 9.5 0
13 9.5 0
14 9.5 0
15 9.5 0
16 9.5 0
17 9.5 0
18 9.5 0
19 9.5 0
20 9.5 0
21 9.5 0
22 9.5 0
23 9.5 0
24 9.5 0
25 9.5 0
26 9.5 0
27 9.5 0
28 9.5 0
29 9.5 0
30 9.5 0
31 9.5 0
32 9.5 0
33 9.5 0
34 9.5 0
35 9.5 0
36 9.5 0
37 9.5 0
38 9.5 0
39 9.5 0
40 9.5 0
41 9.5 0
42 9.5 0
43 9.5 0
44 9.5 0
45 9.5 0
46 9.5 0
47 9.5 0
48 9.5 0
49 9.5 0
50 9.5 0
0.5 10 0
1.5 10 0
2.5 10 0
3.5 10 0
4.5 10 0
5.5 10 0
6.5 10 0
7.5 10 0
8.5 10 0
9.5 10 0
10.5 10 0
11.5 10 0
12.5 10 0
13.5 10 0
14.5 10 0
15.5 10 0
16.5 10 0
17.5 10 0
18.5 10 0
19.5 10 0
20.5 10 0
21.5 10 0
22.5 10 0
23.5 10 0
24.5 10 0
25.5 10 0
26.5 10 0
27.5 10 0
28.5 10 0
29.5 10 0
30.5 10 0
31.5 10 0
32.5 10 0
33.5 10 0
34.5 10 0
35.5 10 0
36.5 10 0
37.5 10 0
38.5 10 0
39.5 10 0
40.5 10 0
41.5 10 0
42.5 10 0
43.5 10 0
44.5 10 0
45.5 10 0
46.5 10 0
47.5 10 0
48.5 10 0
49.5 10 0
0 10.5 0
1 10.5 0
2 10.5 0
3 10.5 0
4 10.5 0
5 10.5 0
6 10.5 0
7 10.5 0
8 10.5 0
9 10.5 0
10 10.5 0
11 10.5 0
12 10.5 0
13 10.5 0
14 10.5 0
15 10.5 0
16 10.5 0
17 10.5 0
18 10.5 0
19 10.5 0
20 10.5 0
21 10.5 0
22 10.5 0
23 10.5 0
24 10.5 0
25 10.5 0
26 10.5 0
27 10.5 0
28 10.5 0
29 10.5 0
30 10.5 0
31 10.5 0
32 10.5 0
33 10.5 0
34 10.5 0
35 10.5 0
36 10.5 0
37 10.5 0
38 10.5 0
39 10.5 0
40 10.5 0
41 10.5 0
42 10.5 0
43 10.5 0
44 10.5 0
45 10.5 0
46 10.5 0
47 10.5 0
48 10.5 0
49 10.5 0
50 10.5 0
[...]
POINT_DATA 5100
VECTORS velocity float
0.612803 0.558187 0.559374
0.579735 0.461636 0.671416
0.557403 0.376314 0.74006
0.574382 0.272125 0.772032
0.615883 0.133307 0.776478
0.660388 -0.03624 0.75005
0.688871 -0.219871 0.690735
0.690925 -0.397007 0.60416
0.666021 -0.552157 0.501536
0.619649 -0.678616 0.394354
0.558578 -0.776697 0.291088
0.488149 -0.850275 0.196831
0.411615 -0.904157 0.114339
0.330559 -0.942703 0.0451882
0.245689 -0.969303 -0.00943281
0.157618 -0.986313 -0.0484125
0.0674408 -0.995209 -0.0707905
-0.0230393 -0.996836 -0.0760774
-0.111459 -0.991666 -0.0646109
-0.195331 -0.980011 -0.0377508
-0.272556 -0.962138 0.00219177
-0.341814 -0.938314 0.0522572
-0.402699 -0.908791 0.109237
-0.455622 -0.873784 0.170027
-0.501574 -0.833464 0.231866
-0.541843 -0.787968 0.292425
-0.577774 -0.737429 0.349822
-0.610581 -0.682006 0.402566
-0.641223 -0.621919 0.4495
-0.670344 -0.557479 0.48975
-0.698249 -0.489115 0.522699
-0.724921 -0.417391 0.547972
-0.75007 -0.343018 0.56545
-0.773213 -0.266845 0.57527
-0.793772 -0.189839 0.57783
-0.811183 -0.113038 0.573763
-0.825 -0.0374939 0.563888
-0.834969 0.0358029 0.549132
-0.841073 0.105996 0.530435
-0.843529 0.172432 0.50865
-0.84275 0.23471 0.484442
-0.839262 0.292715 0.458211
-0.833616 0.346633 0.430036
-0.826275 0.396939 0.399636
-0.817503 0.444387 0.366347
-0.807241 0.489971 0.329075
-0.795012 0.534867 0.286134
-0.779854 0.580297 0.2347
-0.75998 0.627502 0.169328
-0.730463 0.678284 0.0797166
0.558187 0.612803 0.559374
0.535443 0.493944 0.68507
0.546309 0.396027 0.738044
0.592421 0.286979 0.752782
0.658896 0.149838 0.73716
0.723146 -0.0170494 0.690485
0.764361 -0.200351 0.612871
0.770667 -0.380132 0.511441
0.741611 -0.539617 0.39853
0.684546 -0.670325 0.286463
0.609188 -0.771346 0.18416
0.524103 -0.846155 0.0966355
0.435477 -0.899827 0.0259286
0.347161 -0.937394 -0.0277679
0.261158 -0.96309 -0.0652236
0.178201 -0.980089 -0.0875814
0.0982816 -0.990516 -0.0960195
0.021098 -0.995571 -0.0916138
-0.0536161 -0.995714 -0.0753556
-0.125895 -0.990869 -0.0482642
-0.195486 -0.980639 -0.01153
-0.261918 -0.964513 0.0333799
-0.324654 -0.942033 0.0846986
-0.383255 -0.912905 0.140428
-0.437501 -0.877042 0.198471
-0.487431 -0.834551 0.256779
-0.533312 -0.785691 0.313478
-0.575545 -0.730822 0.366943
-0.61456 -0.670376 0.415828
-0.650706 -0.604843 0.459072
-0.684185 -0.534778 0.495885
-0.715006 -0.460825 0.525743
-0.742987 -0.383733 0.548378
-0.767794 -0.304376 0.56378
-0.78901 -0.223745 0.57219
-0.806227 -0.142927 0.574082
-0.819139 -0.0630522 0.570119
-0.827619 0.0147724 0.561095
-0.831771 0.0895451 0.54785
-0.831931 0.160446 0.531176
-0.828642 0.226902 0.51173
-0.822582 0.288631 0.48995
-0.814473 0.34566 0.465997
-0.80498 0.398325 0.439709
-0.794607 0.447247 0.410573
-0.783576 0.493313 0.377692
-0.77172 0.537647 0.339681
-0.758363 0.58159 0.294344
-0.742036 0.626786 0.237742
-0.718957 0.675662 0.163037
-0.678284 0.730463 0.0797166
0.493944 0.535443 0.68507
0.504776 0.445388 0.73948
0.564539 0.342541 0.750974
0.648379 0.214813 0.730383
0.73288 0.05818 0.677866
0.79523 -0.118827 0.59455
0.820435 -0.299105 0.48726
0.804903 -0.465596 0.3679
0.754341 -0.607388 0.249099
0.67875 -0.720756 0.140744
0.588374 -0.807105 0.0489584
0.491713 -0.870443 -0.0234078
0.394962 -0.915558 -0.0758804
0.302111 -0.946961 -0.109518
0.215284 -0.96836 -0.126225
0.135155 -0.982492 -0.12823
0.061386 -0.991148 -0.117721
-0.00698063 -0.995295 -0.0966384
-0.0711644 -0.995238 -0.0666068
-0.132365 -0.990777 -0.0289737
-0.191559 -0.981365 0.0150782
-0.249382 -0.966262 0.0643965
-0.306101 -0.94469 0.117743
-0.361657 -0.915982 0.173729
-0.415765 -0.879693 0.230825
-0.46802 -0.835671 0.287422
-0.517998 -0.784064 0.341938
-0.565309 -0.725287 0.392919
-0.609609 -0.659959 0.439125
-0.650584 -0.58885 0.47958
-0.687914 -0.512831 0.513594
-0.721246 -0.432866 0.540769
-0.750197 -0.35 0.560985
-0.774381 -0.265367 0.574382
-0.793467 -0.180173 0.581333
-0.807252 -0.0956674 0.582402
-0.815731 -0.0130861 0.578283
-0.81914 0.0664253 0.569734
-0.817968 0.141892 0.55749
-0.812924 0.212585 0.542183
-0.804872 0.278075 0.524267
-0.79474 0.33826 0.503953
-0.783419 0.393365 0.481164
-0.771652 0.443924 0.455504
-0.759933 0.490749 0.426225
-0.748381 0.534913 0.392165
-0.736593 0.577787 0.351559
-0.723338 0.621179 0.301528
-0.705547 0.667579 0.237787
-0.675662 0.718957 0.163037
0.461636 0.579735 0.671416
0.445388 0.504776 0.73948
0.501875 0.423662 0.754077
0.592236 0.313379 0.742328
0.693564 0.172589 0.699416
0.781082 0.00535961 0.624405
0.83499 -0.17461 0.521826
0.84611 -0.349987 0.402003
0.816083 -0.506855 0.277681
0.753321 -0.637854 0.160157
0.668479 -0.741512 0.0574006
0.571599 -0.820119 -0.0260551
0.470849 -0.877764 -0.0885008
0.372163 -0.918975 -0.130304
0.279312 -0.947902 -0.153191
0.194172 -0.967895 -0.159613
0.117117 -0.981383 -0.152224
0.0474378 -0.989911 -0.133515
-0.016245 -0.994275 -0.105608
-0.0756176 -0.994664 -0.0701848
-0.132362 -0.990791 -0.0285376
-0.187918 -0.982014 0.0183078
-0.243316 -0.967459 0.0694294
-0.299088 -0.946154 0.123853
-0.355263 -0.917186 0.180439
-0.411434 -0.879859 0.237847
-0.466878 -0.833818 0.294572
-0.520705 -0.779117 0.34906
-0.571989 -0.716212 0.399837
-0.619859 -0.645895 0.445639
-0.663547 -0.569204 0.485501
-0.702389 -0.487338 0.518798
-0.735822 -0.401594 0.545242
-0.763389 -0.313338 0.564851
-0.784764 -0.223984 0.577908
-0.7998 -0.13496 0.584899
-0.808581 -0.0476733 0.586451
-0.811462 0.0365662 0.58326
-0.809074 0.116623 0.57602
-0.802292 0.191616 0.565341
-0.792166 0.260985 0.551688
-0.77982 0.324519 0.535321
-0.766349 0.382361 0.516246
-0.752707 0.434982 0.49419
-0.739605 0.48314 0.468571
-0.727404 0.52786 0.438459
-0.715966 0.57045 0.402467
-0.704372 0.612651 0.358496
-0.69018 0.656843 0.303659
-0.667579 0.705547 0.237787
-0.627502 0.75998 0.169328
0.396027 0.546309 0.738044
0.423662 0.501875 0.754077
0.512744 0.417265 0.750322
0.624796 0.298402 0.721516
0.735432 0.147534 0.661343
0.820859 -0.0259181 0.570543
0.865523 -0.205965 0.456561
0.865204 -0.376515 0.331148
0.824808 -0.526373 0.206454
0.75395 -0.650416 0.0922936
0.663345 -0.748299 -0.00474331
0.562772 -0.822621 -0.0811317
0.460141 -0.877383 -0.135899
0.361144 -0.916884 -0.169996
0.269268 -0.945009 -0.185614
0.186059 -0.964861 -0.185543
0.111522 -0.978651 -0.172643
0.0445717 -0.98776 -0.149478
-0.0165288 -0.99286 -0.118133
-0.0737887 -0.994047 -0.080166
-0.129166 -0.990944 -0.036689
-0.184314 -0.9828 0.0114844
-0.240392 -0.968587 0.0636449
-0.297956 -0.947133 0.119
-0.356923 -0.917302 0.176529
-0.416636 -0.878193 0.234931
-0.475999 -0.829321 0.292663
-0.533678 -0.770733 0.348077
-0.58829 -0.703015 0.399606
-0.638559 -0.627208 0.445929
-0.683408 -0.544677 0.486087
-0.721984 -0.456978 0.519529
-0.753664 -0.365757 0.546088
-0.778057 -0.272691 0.565922
-0.79502 -0.179447 0.579432
-0.804696 -0.0876402 0.587183
-0.807533 0.00122534 0.589821
-0.804295 0.085837 0.587999
-0.796016 0.165156 0.582307
-0.78393 0.238488 0.573216
-0.76936 0.305519 0.561019
-0.753601 0.36632 0.545798
-0.737803 0.421314 0.52739
-0.722872 0.471227 0.505372
-0.709364 0.517042 0.47903
-0.69737 0.559994 0.447305
-0.686278 0.601673 0.408672
-0.674225 0.644211 0.361129
-0.656843 0.69018 0.303659
-0.626786 0.742036 0.237742
0.376314 0.557403 0.74006
0.342541 0.564539 0.750974
0.417265 0.512744 0.750322
0.532622 0.421659 0.733838
0.66056 0.294222 0.69072
0.775609 0.135714 0.616451
0.856599 -0.0410424 0.514348
0.892585 -0.219633 0.393767
0.883225 -0.385845 0.266528
0.835302 -0.5307 0.143626
0.758807 -0.650449 0.0335826
0.664281 -0.745232 -0.0579631
0.561296 -0.817635 -0.128138
0.457603 -0.871466 -0.176483
0.358711 -0.910797 -0.20439
0.267841 -0.939303 -0.21441
0.186203 -0.959901 -0.209568
0.113431 -0.974655 -0.192821
0.0480867 -0.984833 -0.16671
-0.0118843 -0.991019 -0.133193
-0.0687445 -0.99323 -0.0936395
-0.124635 -0.990995 -0.048938
-0.18131 -0.983426 0.000318118
-0.239929 -0.969309 0.053606
-0.30093 -0.947252 0.110253
-0.363986 -0.915894 0.169272
-0.428075 -0.87417 0.229298
-0.49166 -0.821552 0.288658
-0.552941 -0.758188 0.345552
-0.610123 -0.684916 0.398296
-0.661623 -0.603128 0.445525
-0.706181 -0.514581 0.486327
-0.742904 -0.421214 0.520262
-0.771249 -0.325012 0.547304
-0.791023 -0.227929 0.567741
-0.802383 -0.131835 0.582066
-0.805847 -0.038462 0.590874
-0.80229 0.0506758 0.594779
-0.792901 0.134362 0.594352
-0.779098 0.211756 0.590056
-0.762405 0.282434 0.582211
-0.744326 0.346394 0.570955
-0.726216 0.404018 0.55622
-0.709164 0.456007 0.537721
-0.69391 0.503319 0.514936
-0.680735 0.547133 0.487078
-0.669294 0.58889 0.45305
-0.65821 0.63045 0.411452
-0.644211 0.674225 0.361129
-0.621179 0.723338 0.301528
-0.580297 0.779854 0.2347
0.286979 0.592421 0.752782
0.313379 0.592236 0.742328
0.421659 0.532622 0.733838
0.558801 0.434422 0.706413
0.6978 0.29924 0.650792
0.813708 0.135389 0.565286
0.889169 -0.0424784 0.455604
0.917608 -0.218746 0.331882
0.901409 -0.381271 0.205171
0.848197 -0.522783 0.0852028
0.767844 -0.640308 -0.0204943
0.670618 -0.734063 -0.106882
0.565953 -0.806404 -0.171492
0.461539 -0.860864 -0.21423
0.362763 -0.901282 -0.236843
0.272624 -0.931144 -0.24217
0.192018 -0.95323 -0.233414
0.120235 -0.9695 -0.213574
0.0555046 -0.981148 -0.185115
-0.00450816 -0.988702 -0.149829
-0.0622779 -0.992103 -0.10887
-0.120074 -0.990771 -0.0628921
-0.179677 -0.983649 -0.0122789
-0.242158 -0.969301 0.0425984
-0.307726 -0.946086 0.101126
-0.375693 -0.912428 0.162265
-0.444564 -0.867158 0.2245
-0.512289 -0.809807 0.28596
-0.576598 -0.740772 0.344662
-0.635343 -0.661273 0.398819
-0.686744 -0.573155 0.447075
-0.729508 -0.478612 0.488619
-0.762841 -0.379965 0.523164
-0.786423 -0.279503 0.550833
-0.800378 -0.1794 0.572024
-0.805259 -0.0816546 0.587274
-0.802031 0.0119817 0.597162
-0.792024 0.100089 0.602229
-0.776835 0.181658 0.602932
-0.758201 0.256142 0.599602
-0.737846 0.323455 0.592419
-0.717339 0.383936 0.581393
-0.697972 0.438266 0.566354
-0.680662 0.487391 0.546945
-0.665868 0.532452 0.522603
-0.653466 0.574782 0.492552
-0.642472 0.616 0.455822
-0.63045 0.65821 0.411452
-0.612651 0.704372 0.358496
-0.58159 0.758363 0.294344
0.272125 0.574382 0.772032
0.214813 0.648379 0.730383
0.298402 0.624796 0.721516
0.434422 0.558801 0.706413
0.588924 0.453585 0.668901
0.73453 0.311989 0.602601
0.848597 0.144987 0.508784
0.918215 -0.0322348 0.394768
0.940507 -0.205624 0.270492
0.919495 -0.365051 0.145829
0.862895 -0.504529 0.0293787
0.78014 -0.621448 -0.0719975
0.68118 -0.715825 -0.153584
0.57537 -0.789633 -0.213139
0.470409 -0.846049 -0.250833
0.371631 -0.888644 -0.268705
0.281859 -0.920728 -0.269843
0.201711 -0.944966 -0.257588
0.130162 -0.963252 -0.234953
0.065137 -0.976739 -0.204299
0.00404945 -0.985909 -0.167235
-0.0557553 -0.990629 -0.124684
-0.11663 -0.990181 -0.0770709
-0.18032 -0.983301 -0.0245859
-0.247715 -0.968287 0.0325066
-0.318685 -0.94323 0.0935815
-0.392051 -0.906367 0.157462
-0.465746 -0.856515 0.222403
-0.537155 -0.793415 0.286282
-0.603568 -0.717872 0.346938
-0.662581 -0.631628 0.402532
-0.712368 -0.537048 0.451787
-0.751755 -0.436778 0.494053
-0.780202 -0.333486 0.529218
-0.797736 -0.229703 0.557542
-0.804904 -0.127747 0.579491
-0.802735 -0.0296451 0.595599
-0.792679 0.0629454 0.606381
-0.776509 0.148819 0.61228
-0.756176 0.22728 0.61363
-0.73364 0.298145 0.61064
-0.710705 0.361701 0.603383
-0.688879 0.418611 0.591786
-0.669275 0.469813 0.575627
-0.652526 0.516431 0.554534
-0.638704 0.55973 0.527978
-0.627133 0.601147 0.495304
-0.616 0.642472 0.455822
-0.601673 0.686278 0.408672
-0.577787 0.736593 0.351559
-0.534867 0.795012 0.286134
0.149838 0.658896 0.73716
0.172589 0.693564 0.699416
0.294222 0.66056 0.69072
0.453585 0.588924 0.668901
0.620656 0.477162 0.622175
0.768758 0.330789 0.547348
0.879017 0.16273 0.448161
0.943002 -0.0123499 0.332559
0.960624 -0.182381 0.209613
0.936633 -0.339093 0.0879415
0.878305 -0.477461 -0.024738
0.794435 -0.594981 -0.121944
0.694616 -0.691289 -0.19907
0.588148 -0.767843 -0.253969
0.482791 -0.827369 -0.287006
0.383883 -0.873126 -0.300475
0.294113 -0.90823 -0.297684
0.213866 -0.935246 -0.282094
0.141831 -0.956025 -0.256712
0.0756578 -0.971699 -0.223781
0.0125305 -0.982713 -0.184713
-0.0503519 -0.988842 -0.140198
-0.115378 -0.989196 -0.0904341
-0.184183 -0.982253 -0.0354478
-0.257369 -0.966001 0.0245494
-0.334333 -0.938258 0.08884
-0.413275 -0.897141 0.156017
-0.491459 -0.841592 0.224033
-0.5657 -0.771749 0.290495
-0.632928 -0.689 0.353102
-0.690644 -0.595715 0.410041
-0.737146 -0.494812 0.460192
-0.771547 -0.389357 0.503107
-0.793697 -0.282297 0.538844
-0.804086 -0.176328 0.567762
-0.803772 -0.0738046 0.590342
-0.794307 0.023335 0.607068
-0.777627 0.113654 0.618367
-0.755899 0.196279 0.624572
-0.731328 0.270909 0.625913
-0.705973 0.337763 0.622509
-0.681586 0.397481 0.61437
-0.659491 0.451 0.601391
-0.640511 0.499439 0.583358
-0.624898 0.544025 0.559945
-0.612228 0.586081 0.530742
-0.601147 0.627133 0.495304
-0.58889 0.669294 0.45305
-0.57045 0.715966 0.402467
-0.537647 0.77172 0.339681
0.133307 0.615883 0.776478
0.05818 0.73288 0.677866
0.147534 0.735432 0.661343
0.29924 0.6978 0.650792
0.477162 0.620656 0.622175
0.651777 0.503117 0.567503
0.798781 0.353804 0.486592
0.903935 0.186675 0.384779
0.962808 0.0150771 0.269767
0.977162 -0.15107 0.14944
0.951782 -0.305174 0.0312934
0.893176 -0.442968 -0.0775636
0.809369 -0.561916 -0.170798
0.709543 -0.661158 -0.243759
0.602934 -0.741521 -0.294309
0.497384 -0.805177 -0.322955
0.398265 -0.854994 -0.332219
0.30818 -0.893868 -0.325615
0.227316 -0.92426 -0.306709
0.15411 -0.947994 -0.278492
0.0859608 -0.96619 -0.243078
0.0198544 -0.979252 -0.20167
-0.0471175 -0.986834 -0.15472
-0.117317 -0.987821 -0.10221
-0.192172 -0.980373 -0.044039
-0.271863 -0.962137 0.0195649
-0.355155 -0.930685 0.0876964
-0.43949 -0.884131 0.158623
-0.521411 -0.821741 0.229941
-0.597217 -0.744265 0.299001
-0.663639 -0.65383 0.363443
-0.718276 -0.553494 0.421574
-0.759743 -0.446703 0.472491
-0.787597 -0.336872 0.515954
-0.802202 -0.227143 0.552158
-0.804606 -0.120264 0.581502
-0.79644 -0.018509 0.604435
-0.779789 0.0764111 0.621362
-0.757031 0.163409 0.632615
-0.730626 0.242035 0.638439
-0.702906 0.312427 0.638993
-0.675889 0.375189 0.634356
-0.65114 0.431256 0.624528
-0.629688 0.481754 0.60943
-0.611969 0.527899 0.588912
-0.597768 0.570941 0.56276
-0.586081 0.612228 0.530742
-0.574782 0.653466 0.492552
-0.559994 0.69737 0.447305
-0.534913 0.748381 0.392165
-0.489971 0.807241 0.329075
-0.0170494 0.723146 0.690485
0.00535961 0.781082 0.624405
0.135714 0.775609 0.616451
0.311989 0.73453 0.602601
0.503117 0.651777 0.567503
0.680401 0.529539 0.506599
0.823413 0.379232 0.422106
0.92273 0.214876 0.319995
0.977132 0.047979 0.20715
0.989411 -0.113681 0.0902379
0.96394 -0.265022 -0.0241342
0.906285 -0.40243 -0.129222
0.823618 -0.523291 -0.218677
0.724643 -0.626189 -0.287714
0.618478 -0.711219 -0.334144
0.513022 -0.779888 -0.358586
0.413695 -0.834585 -0.363765
0.323042 -0.877929 -0.353389
0.241087 -0.912269 -0.331122
0.166045 -0.939402 -0.299923
0.0950977 -0.960436 -0.261762
0.0250701 -0.975711 -0.217624
-0.0469993 -0.984715 -0.167713
-0.123359 -0.986043 -0.111815
-0.205098 -0.977476 -0.0497505
-0.291805 -0.956306 0.0181471
-0.381436 -0.919938 0.0906722
-0.470562 -0.866673 0.165676
-0.555015 -0.796353 0.240377
-0.630725 -0.710551 0.311935
-0.694443 -0.612242 0.378032
-0.744096 -0.505165 0.437183
-0.778797 -0.39322 0.488726
-0.798685 -0.28007 0.5326
-0.804745 -0.16894 0.569074
-0.798656 -0.0625053 0.598533
-0.78264 0.0371872 0.621363
-0.759283 0.128792 0.637889
-0.731305 0.211677 0.648371
-0.701327 0.285872 0.653007
-0.671653 0.351934 0.651939
-0.644119 0.410793 0.64526
-0.619981 0.463585 0.633019
-0.599873 0.511529 0.615216
-0.583773 0.555846 0.591814
-0.570941 0.597768 0.56276
-0.55973 0.638704 0.527978
-0.547133 0.680735 0.487078
-0.52786 0.727404 0.438459
-0.493313 0.783576 0.377692
-0.03624 0.660388 0.75005
-0.118827 0.79523 0.59455
-0.0259181 0.820859 0.570543
0.135389 0.813708 0.565286
0.330789 0.768758 0.547348
0.529539 0.680401 0.506599
0.705171 0.554843 0.441455
0.842072 0.405482 0.355667
0.935237 0.245537 0.255035
0.985769 0.0844139 0.145375
0.996873 -0.0721242 0.0322956
0.972277 -0.220359 -0.0782265
0.916556 -0.357294 -0.179629
0.835995 -0.480253 -0.26546
0.738733 -0.587262 -0.330751
0.633669 -0.67761 -0.373239
0.528693 -0.752026 -0.393624
0.42925 -0.812321 -0.394816
0.33784 -0.860776 -0.380696
0.254349 -0.899597 -0.35501
0.176811 -0.930542 -0.320671
0.102229 -0.954693 -0.279484
0.0273172 -0.972286 -0.232194
-0.0508605 -0.982577 -0.178759
-0.134317 -0.983792 -0.118792
-0.223631 -0.97328 -0.052107
-0.317587 -0.948002 0.020739
-0.413159 -0.905358 0.0981161
-0.505992 -0.8441 0.17739
-0.591316 -0.764919 0.255429
-0.664933 -0.670389 0.329307
-0.723879 -0.564359 0.39686
-0.766628 -0.451178 0.456859
-0.792954 -0.335085 0.508863
-0.803697 -0.219872 0.552926
-0.800546 -0.108711 0.589329
-0.785845 -0.00405877 0.61841
-0.762386 0.0924199 0.640489
-0.733158 0.179867 0.655841
-0.701081 0.25817 0.664706
-0.668773 0.327823 0.66729
-0.638357 0.38974 0.663779
-0.61135 0.445072 0.654341
-0.588599 0.495051 0.639121
-0.570272 0.540895 0.618242
-0.555846 0.583773 0.591814
-0.544025 0.624898 0.559945
-0.532452 0.665868 0.522603
-0.517042 0.709364 0.47903
-0.490749 0.759933 0.426225
-0.444387 0.817503 0.366347
-0.200351 0.764361 0.612871
-0.17461 0.83499 0.521826
-0.0410424 0.856599 0.514348
0.144987 0.848597 0.508784
0.353804 0.798781 0.486592
0.554843 0.705171 0.441455
0.72533 0.577893 0.374079
0.854728 0.431281 0.288853
0.941685 0.277103 0.190903
0.988807 0.122629 0.0849885
0.999312 -0.0282044 -0.0240943
0.976218 -0.172908 -0.130775
0.923158 -0.309098 -0.228556
0.845532 -0.434104 -0.310853
0.750823 -0.545427 -0.372524
0.647574 -0.641519 -0.411219
0.543547 -0.722241 -0.427697
0.444153 -0.788725 -0.425019
0.351838 -0.842844 -0.407214
0.26638 -0.88662 -0.378082
0.185669 -0.921744 -0.340462
0.106582 -0.949233 -0.295967
0.0257948 -0.96916 -0.24508
-0.0594937 -0.98046 -0.187509
-0.150895 -0.9809 -0.122742
-0.24825 -0.967369 -0.0506963
-0.349309 -0.936598 0.0277023
-0.449927 -0.88623 0.110278
-0.544872 -0.815796 0.193884
-0.629002 -0.727093 0.275122
-0.698292 -0.623788 0.351109
-0.750341 -0.510547 0.419917
-0.784364 -0.392202 0.480573
-0.800934 -0.273196 0.532794
-0.801686 -0.157307 0.576676
-0.789065 -0.0474995 0.61247
-0.766071 0.0541576 0.64047
-0.735973 0.146518 0.660966
-0.702014 0.229287 0.674243
-0.667141 0.302868 0.680583
-0.633794 0.368152 0.680272
-0.603768 0.426298 0.673598
-0.578149 0.47856 0.660851
-0.557301 0.526169 0.642309
-0.540895 0.570272 0.618242
-0.527899 0.611969 0.588912
-0.516431 0.652526 0.554534
-0.503319 0.69391 0.514936
-0.48314 0.739605 0.468571
-0.447247 0.794607 0.410573
-0.219871 0.688871 0.690735
-0.299105 0.820435 0.48726
-0.205965 0.865523 0.456561
-0.0424784 0.889169 0.455604
0.16273 0.879017 0.448161
0.379232 0.823413 0.422106
0.577893 0.72533 0.374079
0.740669 0.598015 0.306246
0.86177 0.455696 0.222921
0.942589 0.308305 0.12835
0.986586 0.161094 0.0264115
0.996767 0.0164068 -0.0786556
0.975492 -0.124369 -0.181514
0.925569 -0.259462 -0.275682
0.851549 -0.386285 -0.354468
0.760175 -0.501896 -0.412596
0.659465 -0.603922 -0.447643
0.556897 -0.691303 -0.460398
0.457751 -0.764411 -0.454026
0.364395 -0.824636 -0.432657
0.276521 -0.873758 -0.400104
0.191922 -0.913357 -0.35909
0.107418 -0.944322 -0.310995
0.0197437 -0.966471 -0.256014
-0.0736174 -0.97831 -0.193623
-0.173648 -0.977063 -0.123266
-0.279178 -0.959179 -0.0451157
-0.386706 -0.921362 0.0393673
-0.490922 -0.861843 0.127363
-0.585899 -0.781274 0.21525
-0.666456 -0.682746 0.299492
-0.729076 -0.571001 0.377366
-0.772168 -0.451396 0.447211
-0.795852 -0.329085 0.508255
-0.801608 -0.208563 0.56029
-0.791943 -0.093427 0.603405
-0.770061 0.013743 0.637822
-0.739535 0.111424 0.663832
-0.703958 0.199082 0.681769
-0.666637 0.276994 0.692004
-0.630351 0.346005 0.694937
-0.597199 0.407283 0.690995
-0.56852 0.462107 0.680619
-0.544893 0.511729 0.664248
-0.526169 0.557301 0.642309
-0.511529 0.599873 0.615216
-0.499439 0.640511 0.583358
-0.487391 0.680662 0.546945