# vtk DataFile Version 2.0
tmp/0.000.00-10.000.000.001.0076.vtk
ASCII
DATASET UNSTRUCTURED_GRID
POINTS 5101 float
0 0 0
1 0 0
2 0 0
3 0 0
4 0 0
5 0 0
6 0 0
7 0 0
8 0 0
9 0 0
10 0 0
11 0 0
12 0 0
13 0 0
14 0 0
15 0 0
16 0 0
17 0 0
18 0 0
19 0 0
20 0 0
21 0 0
22 0 0
23 0 0
24 0 0
25 0 0
26 0 0
27 0 0
28 0 0
29 0 0
30 0 0
31 0 0
32 0 0
33 0 0
34 0 0
35 0 0
36 0 0
37 0 0
38 0 0
39 0 0
40 0 0
41 0 0
42 0 0
43 0 0
44 0 0
45 0 0
46 0 0
47 0 0
48 0 0
49 0 0
50 0 0
0.5 0.5 0
1.5 0.5 0
2.5 0.5 0
3.5 0.5 0
4.5 0.5 0
5.5 0.5 0
6.5 0.5 0
7.5 0.5 0
8.5 0.5 0
9.5 0.5 0
10.5 0.5 0
11.5 0.5 0
12.5 0.5 0
13.5 0.5 0
14.5 0.5 0
15.5 0.5 0
16.5 0.5 0
17.5 0.5 0
18.5 0.5 0
19.5 0.5 0
20.5 0.5 0
21.5 0.5 0
22.5 0.5 0
23.5 0.5 0
24.5 0.5 0
25.5 0.5 0
26.5 0.5 0
27.5 0.5 0
28.5 0.5 0
29.5 0.5 0
30.5 0.5 0
31.5 0.5 0
32.5 0.5 0
33.5 0.5 0
34.5 0.5 0
35.5 0.5 0
36.5 0.5 0
37.5 0.5 0
38.5 0.5 0
39.5 0.5 0
40.5 0.5 0
41.5 0.5 0
42.5 0.5 0
43.5 0.5 0
44.5 0.5 0
45.5 0.5 0
46.5 0.5 0
47.5 0.5 0
48.5 0.5 0
49.5 0.5 0
0 1 0
1 1 0
2 1 0
3 1 0
4 1 0
5 1 0
6 1 0
7 1 0
8 1 0
9 1 0
10 1 0
11 1 0
12 1 0
13 1 0
14 1 0
15 1 0
16 1 0
17 1 0
18 1 0
19 1 0
20 1 0
21 1 0
22 1 0
23 1 0
24 1 0
25 1 0
26 1 0
27 1 0
28 1 0
29 1 0
30 1 0
31 1 0
32 1 0
33 1 0
34 1 0
35 1 0
36 1 0
37 1 0
38 1 0
39 1 0
40 1 0
41 1 0
42 1 0
43 1 0
44 1 0
45 1 0
46 1 0
47 1 0
48 1 0
49 1 0
50 1 0
0.5 1.5 0
1.5 1.5 0
2.5 1.5 0
3.5 1.5 0
4.5 1.5 0
5.5 1.5 0
6.5 1.5 0
7.5 1.5 0
8.5 1.5 0
9.5 1.5 0
10.5 1.5 0
11.5 1.5 0
12.5 1.5 0
13.5 1.5 0
14.5 1.5 0
15.5 1.5 0
16.5 1.5 0
17.5 1.5 0
18.5 1.5 0
19.5 1.5 0
20.5 1.5 0
21.5 1.5 0
22.5 1.5 0
23.5 1.5 0
24.5 1.5 0
25.5 1.5 0
26.5 1.5 0
27.5 1.5 0
28.5 1.5 0
29.5 1.5 0
30.5 1.5 0
31.5 1.5 0
32.5 1.5 0
33.5 1.5 0
34.5 1.5 0
35.5 1.5 0
36.5 1.5 0
37.5 1.5 0
38.5 1.5 0
39.5 1.5 0
40.5 1.5 0
41.5 1.5 0
42.5 1.5 0
43.5 1.5 0
44.5 1.5 0
45.5 1.5 0
46.5 1.5 0
47.5 1.5 0
48.5 1.5 0
49.5 1.5 0
0 2 0
1 2 0
2 2 0
3 2 0
4 2 0
5 2 0
6 2 0
7 2 0
8 2 0
9 2 0
10 2 0
11 2 0
12 2 0
13 2 0
14 2 0
15 2 0
16 2 0
17 2 0
18 2 0
19 2 0
20 2 0
21 2 0
22 2 0
23 2 0
24 2 0
25 2 0
26 2 0
27 2 0
28 2 0
29 2 0
30 2 0
31 2 0
32 2 0
33 2 0
34 2 0
35 2 0
36 2 0
37 2 0
38 2 0
39 2 0
40 2 0
41 2 0
42 2 0
43 2 0
44 2 0
45 2 0
46 2 0
47 2 0
48 2 0
49 2 0
50 2 0
0.5 2.5 0
1.5 2.5 0
2.5 2.5 0
3.5 2.5 0
4.5 2.5 0
5.5 2.5 0
6.5 2.5 0
7.5 2.5 0
8.5 2.5 0
9.5 2.5 0
10.5 2.5 0
11.5 2.5 0
12.5 2.5 0
13.5 2.5 0
14.5 2.5 0
15.5 2.5 0
16.5 2.5 0
17.5 2.5 0
18.5 2.5 0
19.5 2.5 0
20.5 2.5 0
21.5 2.5 0
22.5 2.5 0
23.5 2.5 0
24.5 2.5 0
25.5 2.5 0
26.5 2.5 0
27.5 2.5 0
28.5 2.5 0
29.5 2.5 0
30.5 2.5 0
31.5 2.5 0
32.5 2.5 0
33.5 2.5 0
34.5 2.5 0
35.5 2.5 0
36.5 2.5 0
37.5 2.5 0
38.5 2.5 0
39.5 2.5 0
40.5 2.5 0
41.5 2.5 0
42.5 2.5 0
43.5 2.5 0
44.5 2.5 0
45.5 2.5 0
46.5 2.5 0
47.5 2.5 0
48.5 2.5 0
49.5 2.5 0
0 3 0
1 3 0
2 3 0
3 3 0
4 3 0
5 3 0
6 3 0
7 3 0
8 3 0
9 3 0
10 3 0
11 3 0
12 3 0
13 3 0
14 3 0
15 3 0
16 3 0
17 3 0
18 3 0
19 3 0
20 3 0
21 3 0
22 3 0
23 3 0
24 3 0
25 3 0
26 3 0
27 3 0
28 3 0
29 3 0
30 3 0
31 3 0
32 3 0
33 3 0
34 3 0
35 3 0
36 3 0
37 3 0
38 3 0
39 3 0
40 3 0
41 3 0
42 3 0
43 3 0
44 3 0
45 3 0
46 3 0
47 3 0
48 3 0
49 3 0
50 3 0
0.5 3.5 0
1.5 3.5 0
2.5 3.5 0
3.5 3.5 0
4.5 3.5 0
5.5 3.5 0
6.5 3.5 0
7.5 3.5 0
8.5 3.5 0
9.5 3.5 0
10.5 3.5 0
11.5 3.5 0
12.5 3.5 0
13.5 3.5 0
14.5 3.5 0
15.5 3.5 0
16.5 3.5 0
17.5 3.5 0
18.5 3.5 0
19.5 3.5 0
20.5 3.5 0
21.5 3.5 0
22.5 3.5 0
23.5 3.5 0
24.5 3.5 0
25.5 3.5 0
26.5 3.5 0
27.5 3.5 0
28.5 3.5 0
29.5 3.5 0
30.5 3.5 0
31.5 3.5 0
32.5 3.5 0
33.5 3.5 0
34.5 3.5 0
35.5 3.5 0
36.5 3.5 0
37.5 3.5 0
38.5 3.5 0
39.5 3.5 0
40.5 3.5 0
41.5 3.5 0
42.5 3.5 0
43.5 3.5 0
44.5 3.5 0
45.5 3.5 0
46.5 3.5 0
47.5 3.5 0
48.5 3.5 0
49.5 3.5 0
0 4 0
1 4 0
2 4 0
3 4 0
4 4 0
5 4 0
6 4 0
7 4 0
8 4 0
9 4 0
10 4 0
11 4 0
12 4 0
13 4 0
14 4 0
15 4 0
16 4 0
17 4 0
18 4 0
19 4 0
20 4 0
21 4 0
22 4 0
23 4 0
24 4 0
25 4 0
26 4 0
27 4 0
28 4 0
29 4 0
30 4 0
31 4 0
32 4 0
33 4 0
34 4 0
35 4 0
36 4 0
37 4 0
38 4 0
39 4 0
40 4 0
41 4 0
42 4 0
43 4 0
44 4 0
45 4 0
46 4 0
47 4 0
48 4 0
49 4 0
50 4 0
0.5 4.5 0
1.5 4.5 0
2.5 4.5 0
3.5 4.5 0
4.5 4.5 0
5.5 4.5 0
6.5 4.5 0
7.5 4.5 0
8.5 4.5 0
9.5 4.5 0
10.5 4.5 0
11.5 4.5 0
12.5 4.5 0
13.5 4.5 0
14.5 4.5 0
15.5 4.5 0
16.5 4.5 0
17.5 4.5 0
18.5 4.5 0
19.5 4.5 0
20.5 4.5 0
21.5 4.5 0
22.5 4.5 0
23.5 4.5 0
24.5 4.5 0
25.5 4.5 0
26.5 4.5 0
27.5 4.5 0
28.5 4.5 0
29.5 4.5 0
30.5 4.5 0
31.5 4.5 0
32.5 4.5 0
33.5 4.5 0
34.5 4.5 0
35.5 4.5 0
36.5 4.5 0
37.5 4.5 0
38.5 4.5 0
39.5 4.5 0
40.5 4.5 0
41.5 4.5 0
42.5 4.5 0
43.5 4.5 0
44.5 4.5 0
45.5 4.5 0
46.5 4.5 0
47.5 4.5 0
48.5 4.5 0
49.5 4.5 0
0 5 0
1 5 0
2 5 0
3 5 0
4 5 0
5 5 0
6 5 0
7 5 0
8 5 0
9 5 0
10 5 0
11 5 0
12 5 0
13 5 0
14 5 0
15 5 0
16 5 0
17 5 0
18 5 0
19 5 0
20 5 0
21 5 0
22 5 0
23 5 0
24 5 0
25 5 0
26 5 0
27 5 0
28 5 0
29 5 0
30 5 0
31 5 0
32 5 0
33 5 0
34 5 0
35 5 0
36 5 0
37 5 0
38 5 0
39 5 0
40 5 0
41 5 0
42 5 0
43 5 0
44 5 0
45 5 0
46 5 0
47 5 0
48 5 0
49 5 0
50 5 0
0.5 5.5 0
1.5 5.5 0
2.5 5.5 0
3.5 5.5 0
4.5 5.5 0
5.5 5.5 0
6.5 5.5 0
7.5 5.5 0
8.5 5.5 0
9.5 5.5 0
10.5 5.5 0
11.5 5.5 0
12.5 5.5 0
13.5 5.5 0
14.5 5.5 0
15.5 5.5 0
16.5 5.5 0
17.5 5.5 0
18.5 5.5 0
19.5 5.5 0
20.5 5.5 0
21.5 5.5 0
22.5 5.5 0
23.5 5.5 0
24.5 5.5 0
25.5 5.5 0
26.5 5.5 0
27.5 5.5 0
28.5 5.5 0
29.5 5.5 0
30.5 5.5 0
31.5 5.5 0
32.5 5.5 0
33.5 5.5 0
34.5 5.5 0
35.5 5.5 0
36.5 5.5 0
37.5 5.5 0
38.5 5.5 0
39.5 5.5 0
40.5 5.5 0
41.5 5.5 0
42.5 5.5 0
43.5 5.5 0
44.5 5.5 0
45.5 5.5 0
46.5 5.5 0
47.5 5.5 0
48.5 5.5 0
49.5 5.5 0
0 6 0
1 6 0
2 6 0
3 6 0
4 6 0
5 6 0
6 6 0
7 6 0
8 6 0
9 6 0
10 6 0
11 6 0
12 6 0
13 6 0
14 6 0
15 6 0
16 6 0
17 6 0
18 6 0
19 6 0
20 6 0
21 6 0
22 6 0
23 6 0
24 6 0
25 6 0
26 6 0
27 6 0
28 6 0
29 6 0
30 6 0
31 6 0
32 6 0
33 6 0
34 6 0
35 6 0
36 6 0
37 6 0
38 6 0
39 6 0
40 6 0
41 6 0
42 6 0
43 6 0
44 6 0
45 6 0
46 6 0
47 6 0
48 6 0
49 6 0
50 6 0
0.5 6.5 0
1.5 6.5 0
2.5 6.5 0
3.5 6.5 0
4.5 6.5 0
5.5 6.5 0
6.5 6.5 0
7.5 6.5 0
8.5 6.5 0
9.5 6.5 0
10.5 6.5 0
11.5 6.5 0
12.5 6.5 0
13.5 6.5 0
14.5 6.5 0
15.5 6.5 0
16.5 6.5 0
17.5 6.5 0
18.5 6.5 0
19.5 6.5 0
20.5 6.5 0
21.5 6.5 0
22.5 6.5 0
23.5 6.5 0
24.5 6.5 0
25.5 6.5 0
26.5 6.5 0
27.5 6.5 0
28.5 6.5 0
29.5 6.5 0
30.5 6.5 0
31.5 6.5 0
32.5 6.5 0
33.5 6.5 0
34.5 6.5 0
35.5 6.5 0
36.5 6.5 0
37.5 6.5 0
38.5 6.5 0
39.5 6.5 0
40.5 6.5 0
41.5 6.5 0
42.5 6.5 0
43.5 6.5 0
44.5 6.5 0
45.5 6.5 0
46.5 6.5 0
47.5 6.5 0
48.5 6.5 0
49.5 6.5 0
0 7 0
1 7 0
2 7 0
3 7 0
4 7 0
5 7 0
6 7 0
7 7 0
8 7 0
9 7 0
10 7 0
11 7 0
12 7 0
13 7 0
14 7 0
15 7 0
16 7 0
17 7 0
18 7 0
19 7 0
20 7 0
21 7 0
22 7 0
23 7 0
24 7 0
25 7 0
26 7 0
27 7 0
28 7 0
29 7 0
30 7 0
31 7 0
32 7 0
33 7 0
34 7 0
35 7 0
36 7 0
37 7 0
38 7 0
39 7 0
40 7 0
41 7 0
42 7 0
43 7 0
44 7 0
45 7 0
46 7 0
47 7 0
48 7 0
49 7 0
50 7 0
0.5 7.5 0
1.5 7.5 0
2.5 7.5 0
3.5 7.5 0
4.5 7.5 0
5.5 7.5 0
6.5 7.5 0
7.5 7.5 0
8.5 7.5 0
9.5 7.5 0
10.5 7.5 0
11.5 7.5 0
12.5 7.5 0
13.5 7.5 0
14.5 7.5 0
15.5 7.5 0
16.5 7.5 0
17.5 7.5 0
18.5 7.5 0
19.5 7.5 0
20.5 7.5 0
21.5 7.5 0
22.5 7.5 0
23.5 7.5 0
24.5 7.5 0
25.5 7.5 0
26.5 7.5 0
27.5 7.5 0
28.5 7.5 0
29.5 7.5 0
30.5 7.5 0
31.5 7.5 0
32.5 7.5 0
33.5 7.5 0
34.5 7.5 0
35.5 7.5 0
36.5 7.5 0
37.5 7.5 0
38.5 7.5 0
39.5 7.5 0
40.5 7.5 0
41.5 7.5 0
42.5 7.5 0
43.5 7.5 0
44.5 7.5 0
45.5 7.5 0
46.5 7.5 0
47.5 7.5 0
48.5 7.5 0
49.5 7.5 0
0 8 0
1 8 0
2 8 0
3 8 0
4 8 0
5 8 0
6 8 0
7 8 0
8 8 0
9 8 0
10 8 0
11 8 0
12 8 0
13 8 0
14 8 0
15 8 0
16 8 0
17 8 0
18 8 0
19 8 0
20 8 0
21 8 0
22 8 0
23 8 0
24 8 0
25 8 0
26 8 0
27 8 0
28 8 0
29 8 0
30 8 0
31 8 0
32 8 0
33 8 0
34 8 0
35 8 0
36 8 0
37 8 0
38 8 0
39 8 0
40 8 0
41 8 0
42 8 0
43 8 0
44 8 0
45 8 0
46 8 0
47 8 0
48 8 0
49 8 0
50 8 0
0.5 8.5 0
1.5 8.5 0
2.5 8.5 0
3.5 8.5 0
4.5 8.5 0
5.5 8.5 0
6.5 8.5 0
7.5 8.5 0
8.5 8.5 0
9.5 8.5 0
10.5 8.5 0
11.5 8.5 0
12.5 8.5 0
13.5 8.5 0
14.5 8.5 0
15.5 8.5 0
16.5 8.5 0
17.5 8.5 0
18.5 8.5 0
19.5 8.5 0
20.5 8.5 0
21.5 8.5 0
22.5 8.5 0
23.5 8.5 0
24.5 8.5 0
25.5 8.5 0
26.5 8.5 0
27.5 8.5 0
28.5 8.5 0
29.5 8.5 0
30.5 8.5 0
31.5 8.5 0
32.5 8.5 0
33.5 8.5 0
34.5 8.5 0
35.5 8.5 0
36.5 8.5 0
37.5 8.5 0
38.5 8.5 0
39.5 8.5 0
40.5 8.5 0
41.5 8.5 0
42.5 8.5 0
43.5 8.5 0
44.5 8.5 0
45.5 8.5 0
46.5 8.5 0
47.5 8.5 0
48.5 8.5 0
49.5 8.5 0
0 9 0
1 9 0
2 9 0
3 9 0
4 9 0
5 9 0
6 9 0
7 9 0
8 9 0
9 9 0
10 9 0
11 9 0
12 9 0
13 9 0
14 9 0
15 9 0
16 9 0
17 9 0
18 9 0
19 9 0
20 9 0
21 9 0
22 9 0
23 9 0
24 9 0
25 9 0
26 9 0
27 9 0
28 9 0
29 9 0
30 9 0
31 9 0
32 9 0
33 9 0
34 9 0
35 9 0
36 9 0
37 9 0
38 9 0
39 9 0
40 9 0
41 9 0
42 9 0
43 9 0
44 9 0
45 9 0
46 9 0
47 9 0
48 9 0
49 9 0
50 9 0
0.5 9.5 0
1.5 9.5 0
2.5 9.5 0
3.5 9.5 0
4.5 9.5 0
5.5 9.5 0
6.5 9.5 0
7.5 9.5 0
8.5 9.5 0
9.5 9.5 0
10.5 9.5 0
11.5 9.5 0
12.5 9.5 0
13.5 9.5 0
14.5 9.5 0
15.5 9.5 0
16.5 9.5 0
17.5 9.5 0
18.5 9.5 0
19.5 9.5 0
20.5 9.5 0
21.5 9.5 0
22.5 9.5 0
23.5 9.5 0
24.5 9.5 0
25.5 9.5 0
26.5 9.5 0
27.5 9.5 0
28.5 9.5 0
29.5 9.5 0
30.5 9.5 0
31.5 9.5 0
32.5 9.5 0
33.5 9.5 0
34.5 9.5 0
35.5 9.5 0
36.5 9.5 0
37.5 9.5 0
38.5 9.5 0
39.5 9.5 0
40.5 9.5 0
41.5 9.5 0
42.5 9.5 0
43.5 9.5 0
44.5 9.5 0
45.5 9.5 0
46.5 9.5 0
47.5 9.5 0
48.5 9.5 0
49.5 9.5 0
0 10 0
1 10 0
2 10 0
3 10 0
4 10 0
5 10 0
6 10 0
7 10 0
8 10 0
9 10 0
10 10 0
11 10 0
12 10 0
13 10 0
14 10 0
15 10 0
16 10 0
17 10 0
18 10 0
19 10 0
20 10 0
21 10 0
22 10 0
23 10 0
24 10 0
25 10 0
26 10 0
27 10 0
28 10 0
29 10 0
30 10 0
31 10 0
32 10 0
33 10 0
34 10 0
35 10 0
36 10 0
37 10 0
38 10 0
39 10 0
40 10 0
41 10 0
42 10 0
43 10 0
44 10 0
45 10 0
46 10 0
47 10 0
48 10 0
49 10 0
50 10 0
0.5 10.5 0
1.5 10.5 0
2.5 10.5 0
3.5 10.5 0
4.5 10.5 0
5.5 10.5 0
6.5 10.5 0
7.5 10.5 0
8.5 10.5 0
9.5 10.5 0
10.5 10.5 0
11.5 10.5 0
12.5 10.5 0
13.5 10.5 0
14.5 10.5 0
15.5 10.5 0
16.5 10.5 0
17.5 10.5 0
18.5 10.5 0
19.5 10.5 0
20.5 10.5 0
21.5 10.5 0
22.5 10.5 0
23.5 10.5 0
24.5 10.5 0
25.5 10.5 0
26.5 10.5 0
27.5 10.5 0
28.5 10.5 0
29.5 10.5 0
30.5 10.5 0
31.5 10.5 0
32.5 10.5 0
33.5 10.5 0
34.5 10.5 0
35.5 10.5 0
36.5 10.5 0
37.5 10.5 0
38.5 10.5 0
39.5 10.5 0
40.5 10.5 0
41.5 10.5 0
42.5 10.5 0
43.5 10.5 0
44.5 10.5 0
45.5 10.5 0
46.5 10.5 0
47.5 10.5 0
48.5 10.5 0
49.5 10.5 0
0 11 0
1 11 0
2 11 0
3 11 0
[...]
POINT_DATA 5101
VECTORS velocity float
0.479094 0.479094 0.735484
0.475718 0.377847 0.794307
0.394551 0.247206 0.884997
0.374504 0.12282 0.919055
0.405218 -0.0326648 0.913636
0.453723 -0.218492 0.863943
0.489945 -0.408966 0.76987
0.498818 -0.577412 0.646356
0.480348 -0.711492 0.51288
0.441209 -0.811509 0.383129
0.388272 -0.882984 0.26379
0.326382 -0.93207 0.157225
0.258204 -0.963981 0.0638145
0.184632 -0.982666 -0.0167033
0.105378 -0.990838 -0.0844699
0.0197007 -0.990088 -0.139063
-0.0727299 -0.981095 -0.179339
-0.171009 -0.963989 -0.203669
-0.272543 -0.938819 -0.210567
-0.373276 -0.906011 -0.199523
-0.468616 -0.866575 -0.171601
-0.554612 -0.821974 -0.129477
-0.628808 -0.773748 -0.0769047
-0.69046 -0.723147 -0.0179627
-0.740219 -0.670953 0.0435598
-0.779613 -0.617484 0.104484
-0.810562 -0.562713 0.162309
-0.835019 -0.506421 0.215129
-0.854759 -0.448328 0.261514
-0.871243 -0.388196 0.300397
-0.885557 -0.325916 0.33101
-0.898372 -0.261568 0.352859
-0.90996 -0.195465 0.365741
-0.920238 -0.128172 0.369775
-0.928872 -0.0604885 0.365428
-0.935406 0.00660386 0.353513
-0.93941 0.0720225 0.335145
-0.940602 0.134691 0.31165
-0.938933 0.193652 0.284437
-0.934588 0.24817 0.254865
-0.927947 0.297817 0.224096
-0.919473 0.342541 0.192963
-0.909584 0.382701 0.161855
-0.898507 0.419073 0.130623
-0.886142 0.452823 0.0985095
-0.871916 0.48544 0.0641113
-0.854632 0.518617 0.0253049
-0.832239 0.554019 -0.0210076
-0.801329 0.592874 -0.0798254
-0.755299 0.63534 -0.160831
-0.679115 0.679115 -0.278579
0.39469 0.39469 0.829723
0.351258 0.249434 0.902441
0.373969 0.117472 0.919971
0.441746 -0.0350134 0.896457
0.520421 -0.213619 0.826758
0.577247 -0.398388 0.712793
0.595578 -0.564493 0.57152
0.576286 -0.698706 0.423916
0.528417 -0.799854 0.284621
0.461542 -0.872392 0.160968
0.383204 -0.921975 0.0558372
0.298821 -0.953835 -0.0300915
0.212047 -0.972405 -0.0972884
0.125042 -0.981215 -0.146906
0.038714 -0.982822 -0.180452
-0.0469694 -0.978778 -0.199466
-0.132523 -0.969698 -0.205238
-0.218387 -0.955422 -0.198687
-0.304394 -0.935299 -0.180445
-0.38944 -0.908564 -0.151154
-0.471526 -0.874732 -0.111839
-0.548206 -0.833878 -0.0641653
-0.61725 -0.786698 -0.0104373
-0.677213 -0.734306 0.0466569
-0.727683 -0.677921 0.104409
-0.769182 -0.618575 0.160387
-0.802865 -0.556968 0.212588
-0.830168 -0.493462 0.259453
-0.852518 -0.428169 0.299807
-0.871129 -0.361087 0.332792
-0.886881 -0.29224 0.357825
-0.900272 -0.22179 0.374591
-0.91144 -0.15013 0.383063
-0.920237 -0.0779109 0.383527
-0.92636 -0.00602836 0.376592
-0.929494 0.0644428 0.363164
-0.929454 0.132356 0.344379
-0.926271 0.196616 0.321502
-0.920223 0.256307 0.295797
-0.911793 0.310798 0.2684
-0.901575 0.359824 0.240185
-0.890146 0.403538 0.211652
-0.877923 0.442527 0.182816
-0.865024 0.477792 0.153132
-0.85114 0.510697 0.121443
-0.835404 0.542879 0.0859249
-0.816197 0.576101 0.0439433
-0.790777 0.612046 -0.00848339
-0.75416 0.652024 -0.0781514
-0.696691 0.696691 -0.171008
0.377847 0.475718 0.794307
0.29309 0.29309 0.910053
0.329432 0.171887 0.928402
0.417329 0.0316361 0.908205
0.521967 -0.134679 0.842266
0.607301 -0.314051 0.729765
0.65075 -0.483749 0.585244
0.648961 -0.627638 0.430024
0.610132 -0.740861 0.280827
0.544979 -0.825459 0.147018
0.462803 -0.885847 0.0329773
0.370936 -0.926749 -0.0595135
0.275042 -0.952583 -0.130146
0.179304 -0.967242 -0.179701
0.0864639 -0.973906 -0.209835
-0.00212947 -0.974867 -0.222778
-0.0863289 -0.971457 -0.220949
-0.166825 -0.964097 -0.206605
-0.244657 -0.952448 -0.181622
-0.320691 -0.935633 -0.147474
-0.395183 -0.912536 -0.105396
-0.467569 -0.882139 -0.0566537
-0.536566 -0.843854 -0.00279379
-0.600555 -0.79774 0.054261
-0.658098 -0.744508 0.112312
-0.708339 -0.685313 0.16912
-0.75116 -0.621436 0.222657
-0.787081 -0.554007 0.271256
-0.817008 -0.483859 0.313653
-0.841944 -0.41153 0.34896
-0.862763 -0.337361 0.3766
-0.880059 -0.261649 0.396278
-0.894102 -0.184783 0.407968
-0.904874 -0.107348 0.411921
-0.912184 -0.0301699 0.408669
-0.915808 0.0457083 0.399006
-0.915643 0.11911 0.38394
-0.911811 0.188845 0.364607
-0.904699 0.25385 0.342169
-0.894932 0.313315 0.317696
-0.883275 0.366787 0.292049
-0.870504 0.414235 0.265766
-0.857257 0.456083 0.238953
-0.843892 0.493196 0.211196
-0.830355 0.526845 0.181506
-0.816057 0.558629 0.148273
-0.799704 0.590381 0.109195
-0.77899 0.624061 0.0610125
-0.749821 0.66164 -0.00105492
-0.704797 0.704797 -0.0807623
-0.63534 0.755299 -0.160831
0.249434 0.351258 0.902441
0.255183 0.255183 0.932611
0.345537 0.138066 0.928193
0.467911 -0.0114183 0.883702
0.584747 -0.184794 0.789887
0.66406 -0.361231 0.654628
0.693427 -0.520197 0.498552
0.677345 -0.65151 0.34167
0.626716 -0.754038 0.196604
0.552227 -0.830772 0.0697364
0.462657 -0.885808 -0.0359388
0.365074 -0.92332 -0.11917
0.265122 -0.947279 -0.179926
0.167028 -0.96126 -0.219275
0.0735013 -0.968186 -0.239195
-0.0142607 -0.970117 -0.24222
-0.0963628 -0.968169 -0.231006
-0.173819 -0.962568 -0.207967
-0.248045 -0.952797 -0.175075
-0.320317 -0.937806 -0.133852
-0.391317 -0.91627 -0.0855628
-0.460865 -0.886911 -0.031494
-0.527952 -0.848852 0.026782
-0.591066 -0.801885 0.0872999
-0.648692 -0.74656 0.147804
-0.69977 -0.68402 0.206006
-0.743916 -0.615681 0.259858
-0.781381 -0.542903 0.307734
-0.812812 -0.466793 0.348483
-0.838966 -0.388165 0.381396
-0.860472 -0.307634 0.40614
-0.877696 -0.225762 0.422707
-0.890732 -0.143204 0.431381
-0.899478 -0.0608017 0.432715
-0.903788 0.0203893 0.427494
-0.903627 0.0991501 0.416686
-0.899199 0.174205 0.401366
-0.891001 0.244362 0.382629
-0.879804 0.308657 0.361493
-0.866554 0.366474 0.338794
-0.852235 0.417629 0.31509
-0.837707 0.46241 0.290557
-0.823556 0.501579 0.264903
-0.809959 0.536333 0.237306
-0.796561 0.568241 0.20638
-0.78234 0.599163 0.170142
-0.765361 0.631166 0.1259
-0.742233 0.666464 0.0701093
-0.707107 0.707107 5.48298e-05
-0.652024 0.75416 -0.0781514
0.247206 0.394551 0.884997
0.171887 0.329432 0.928402
0.248949 0.248949 0.935975
0.378897 0.127035 0.916679
0.523315 -0.0310714 0.851573
0.643144 -0.208359 0.736853
0.713235 -0.381176 0.588218
0.730133 -0.532505 0.428187
0.703124 -0.656261 0.273748
0.644029 -0.753137 0.134204
0.563092 -0.826275 0.0140764
0.468651 -0.879345 -0.0843766
0.367609 -0.916082 -0.16018
0.265584 -0.94015 -0.213503
0.166728 -0.954915 -0.245642
0.0735528 -0.963129 -0.258792
-0.0130522 -0.966687 -0.255627
-0.093551 -0.966545 -0.23883
-0.169309 -0.962768 -0.210743
-0.242047 -0.95468 -0.173206
-0.313275 -0.941051 -0.127601
-0.38382 -0.92035 -0.0750911
-0.453545 -0.891072 -0.0169465
-0.521376 -0.852131 0.0451727
-0.585653 -0.803183 0.109119
-0.644681 -0.744756 0.172411
-0.697223 -0.678086 0.232552
-0.742752 -0.604764 0.287368
-0.781387 -0.52637 0.335214
-0.813633 -0.444241 0.375035
-0.840072 -0.359434 0.406308
-0.861138 -0.272823 0.428963
-0.87702 -0.185255 0.443301
-0.887712 -0.0976761 0.449919
-0.893136 -0.0112098 0.449648
-0.89332 0.0728572 0.443477
-0.888542 0.153159 0.432476
-0.879406 0.228386 0.417714
-0.866829 0.297437 0.400173
-0.851944 0.359556 0.38067
-0.835952 0.414427 0.359771
-0.819941 0.462227 0.337703
-0.804726 0.503633 0.314276
-0.790703 0.539787 0.288823
-0.77773 0.572233 0.260166
-0.765009 0.602835 0.226609
-0.750911 0.633694 0.185913
-0.732592 0.667083 0.13531
-0.705248 0.705248 0.0724686
-0.66164 0.749821 -0.00105492
-0.592874 0.801329 -0.0798254
0.117472 0.373969 0.919971
0.138066 0.345537 0.928193
0.262158 0.262158 0.928734
0.423792 0.132867 0.895961
0.582262 -0.0326302 0.812346
0.699851 -0.211903 0.682133
0.759889 -0.38135 0.526442
0.766212 -0.527612 0.366803
0.730752 -0.647324 0.216732
0.665286 -0.74196 0.083
0.579462 -0.81441 -0.0309882
0.481275 -0.867855 -0.1233
0.377564 -0.905638 -0.193042
0.273963 -0.931189 -0.240483
0.174554 -0.947736 -0.26707
0.0816331 -0.957933 -0.275138
-0.00423336 -0.963572 -0.267415
-0.0838704 -0.965496 -0.246543
-0.158982 -0.963647 -0.214731
-0.231557 -0.9572 -0.173636
-0.303276 -0.944739 -0.124465
-0.375 -0.924508 -0.0682684
-0.446489 -0.894767 -0.00632261
-0.516451 -0.854243 0.0595619
-0.582956 -0.802521 0.12697
-0.644066 -0.740195 0.193107
-0.698377 -0.668679 0.255223
-0.745259 -0.589798 0.311009
-0.784749 -0.505378 0.358835
-0.817235 -0.417005 0.397786
-0.843144 -0.326 0.42759
-0.862745 -0.233528 0.448481
-0.876124 -0.14075 0.461082
-0.88328 -0.0489289 0.466285
-0.884309 0.040535 0.465139
-0.879561 0.126165 0.458753
-0.869745 0.206528 0.448207
-0.855925 0.280395 0.434478
-0.839428 0.346881 0.418371
-0.821678 0.40556 0.400458
-0.804007 0.456514 0.381008
-0.787469 0.500354 0.359916
-0.772678 0.53818 0.336646
-0.759697 0.571517 0.310207
-0.747928 0.602228 0.279151
-0.735986 0.632419 0.241599
-0.721449 0.664355 0.195306
-0.70032 0.70032 0.138217
-0.666464 0.742233 0.0701093
-0.612046 0.790777 -0.00848339
0.12282 0.374504 0.919055
0.0316361 0.417329 0.908205
0.127035 0.378897 0.916679
0.290037 0.290037 0.912007
0.476709 0.152974 0.865649
0.642494 -0.0184658 0.766068
0.754419 -0.198531 0.625649
0.804742 -0.365344 0.467882
0.802553 -0.508791 0.311514
0.7608 -0.627186 0.166795
0.690635 -0.722167 0.0387097
0.601042 -0.796155 -0.0699015
0.499747 -0.851803 -0.157115
0.393625 -0.892078 -0.221939
0.28841 -0.920212 -0.264629
0.188183 -0.939353 -0.286712
0.0950766 -0.952105 -0.290615
0.00937288 -0.960214 -0.279109
-0.0700948 -0.964453 -0.254788
-0.145364 -0.964669 -0.219734
-0.218694 -0.959895 -0.175427
-0.291916 -0.948515 -0.122896
-0.365885 -0.928519 -0.0630884
-0.440176 -0.897907 0.0026828
-0.513177 -0.855224 0.0723975
-0.582603 -0.800024 0.143299
-0.646224 -0.733044 0.212229
-0.702459 -0.65596 0.276168
-0.75058 -0.570904 0.332713
-0.790541 -0.480005 0.380316
-0.822611 -0.38515 0.418294
-0.847079 -0.287974 0.446686
-0.864109 -0.189979 0.466072
-0.873792 -0.0926683 0.477389
-0.876298 0.00237881 0.481763
-0.872062 0.0935333 0.480374
-0.861901 0.179221 0.474349
-0.847034 0.258074 0.464685
-0.828988 0.329087 0.452195
-0.809427 0.391731 0.437464
-0.789938 0.446015 0.420795
-0.771827 0.492498 0.402154
-0.755944 0.532252 0.381125
-0.742553 0.566792 0.356877
-0.731245 0.597981 0.328175
-0.720843 0.627922 0.293425
-0.709242 0.658859 0.250761
-0.693054 0.693054 0.198375
-0.667083 0.732592 0.13531
-0.624061 0.77899 0.0610125
-0.554019 0.832239 -0.0210076
-0.0350134 0.441746 0.896457
-0.0114183 0.467911 0.883702
0.132867 0.423792 0.895961
0.329319 0.329319 0.884928
0.533941 0.184903 0.825056
0.701012 0.00904214 0.713092
0.805263 -0.171005 0.567723
0.847039 -0.335967 0.411887
0.838563 -0.478362 0.260734
0.792594 -0.597461 0.121801
0.71928 -0.69472 -0.00106145
0.626895 -0.771976 -0.105146
0.522956 -0.831307 -0.188267
0.414474 -0.87529 -0.249156
0.30741 -0.906965 -0.287947
0.205961 -0.929421 -0.306197
0.112187 -0.945259 -0.306429
0.0261287 -0.956218 -0.291488
-0.0537165 -0.963037 -0.26396
-0.129747 -0.965488 -0.225828
-0.204526 -0.962468 -0.178396
-0.280054 -0.952135 -0.122507
-0.357149 -0.932182 -0.0590029
-0.435124 -0.900306 0.010736
-0.511948 -0.854859 0.0844112
-0.58488 -0.795415 0.158844
-0.651337 -0.722943 0.230464
-0.70953 -0.639495 0.295995
-0.758623 -0.547608 0.353012
-0.798471 -0.4498 0.400156
-0.82924 -0.348327 0.437069
-0.851132 -0.245194 0.464171
-0.864323 -0.142274 0.482393
-0.869079 -0.0414177 0.492936
-0.865933 0.0555332 0.497068
-0.855827 0.146822 0.495988
-0.840148 0.230924 0.49074
-0.82064 0.306703 0.482165
-0.799222 0.373534 0.470868
-0.777757 0.431362 0.457188
-0.757824 0.480711 0.441157
-0.740521 0.522639 0.422464
-0.72633 0.558664 0.400424
-0.715025 0.590654 0.373988
-0.705612 0.620715 0.341795
-0.696232 0.651072 0.302268
-0.683949 0.683949 0.253826
-0.664355 0.721449 0.195306
-0.631166 0.765361 0.1259
-0.576101 0.816197 0.0439433
-0.0326648 0.405218 0.913636
-0.134679 0.521967 0.842266
-0.0310714 0.523315 0.851573
0.152974 0.476709 0.865649
0.376551 0.376551 0.846415
0.591396 0.225622 0.774174
0.754729 0.0469827 0.654352
0.850601 -0.132262 0.508905
0.885602 -0.29581 0.358057
0.873174 -0.43824 0.213339
0.825051 -0.559334 0.0802299
0.750131 -0.660196 -0.038017
0.655919 -0.74202 -0.138481
0.549759 -0.80625 -0.218465
0.438914 -0.855009 -0.27625
0.329736 -0.891113 -0.311755
0.226689 -0.917589 -0.326561
0.131856 -0.937051 -0.323341
0.0450649 -0.951259 -0.305082
-0.0355583 -0.960953 -0.274417
-0.112836 -0.96585 -0.23324
-0.189697 -0.964702 -0.182661
-0.26833 -0.955403 -0.123303
-0.349476 -0.935277 -0.0558921
-0.432077 -0.901656 0.0180757
-0.513529 -0.852694 0.0959238
-0.59051 -0.788061 0.173948
-0.660001 -0.70911 0.248118
-0.719975 -0.618419 0.314952
-0.769481 -0.519065 0.372117
-0.808302 -0.414049 0.418582
-0.836556 -0.306062 0.454423
-0.854479 -0.197512 0.480474
-0.862439 -0.0906457 0.497978
-0.861092 0.0123966 0.508298
-0.851526 0.109619 0.512726
-0.835319 0.199299 0.512369
-0.814457 0.28015 0.50811
-0.79114 0.351442 0.500586
-0.767534 0.413062 0.490174
-0.745516 0.465515 0.476972
-0.726457 0.50986 0.460764
-0.71107 0.547629 0.441001
-0.699321 0.58071 0.416804
-0.690384 0.611219 0.387016
-0.682597 0.641372 0.35029
-0.673357 0.673357 0.305256
-0.658859 0.709242 0.250761
-0.633694 0.750911 0.185913
-0.590381 0.799704 0.109195
-0.518617 0.854632 0.0253049
-0.213619 0.520421 0.826758
-0.184794 0.584747 0.789887
-0.0326302 0.582262 0.812346
0.184903 0.533941 0.825056
0.427782 0.427782 0.796245
0.645131 0.271602 0.71417
0.801128 0.0920694 0.591369
0.889005 -0.0853314 0.449877
0.919313 -0.247315 0.306103
0.905248 -0.390081 0.16841
0.856997 -0.513701 0.0408455
0.782025 -0.618894 -0.0735298
0.686992 -0.706186 -0.171301
0.579073 -0.77631 -0.249031
0.46591 -0.830831 -0.304382
0.354432 -0.872245 -0.336997
0.249533 -0.903474 -0.348522
0.153398 -0.927141 -0.341875
0.0656318 -0.945048 -0.320277
-0.0160862 -0.957961 -0.286448
-0.0950986 -0.965559 -0.242182
-0.17477 -0.96643 -0.188333
-0.257482 -0.958131 -0.125251
-0.343801 -0.937514 -0.0535499
-0.432115 -0.90147 0.0250665
-0.519034 -0.847981 0.107388
-0.600483 -0.776968 0.189053
-0.672937 -0.69039 0.265552
-0.734135 -0.591567 0.333307
-0.783063 -0.484258 0.390265
-0.819514 -0.372022 0.435886
-0.84369 -0.258013 0.470762
-0.856054 -0.145034 0.496121
-0.857401 -0.0356394 0.513413
-0.848992 0.0678568 0.52403
-0.832625 0.163482 0.529159
-0.810559 0.249758 0.529731
-0.785314 0.325829 0.52642
-0.759395 0.391524 0.519643
-0.735012 0.447333 0.509559
-0.713841 0.494337 0.496047
-0.696848 0.534098 0.478688
-0.684204 0.568533 0.456766
-0.675245 0.599782 0.429308
-0.668477 0.630062 0.395171
-0.661539 0.661539 0.353175
-0.651072 0.696232 0.302268
-0.632419 0.735986 0.241599
-0.599163 0.78234 0.170142
-0.542879 0.835404 0.0859249
-0.218492 0.453723 0.863943
-0.314051 0.607301 0.729765
-0.208359 0.643144 0.736853
-0.0184658 0.642494 0.766068
0.225622 0.591396 0.774174
0.478968 0.478968 0.735648
0.692081 0.319325 0.647345
0.838697 0.141064 0.526011
0.919651 -0.033077 0.391342
0.947338 -0.192688 0.255777
0.93376 -0.335301 0.125162
0.887276 -0.461231 0.00260397
0.813794 -0.570891 -0.108736
0.719007 -0.664165 -0.204728
0.6099 -0.740992 -0.280984
0.494596 -0.802217 -0.334399
0.380788 -0.849867 -0.364317
0.273951 -0.88666 -0.372538
0.176419 -0.915192 -0.362353
0.0875165 -0.937319 -0.337304
0.00436226 -0.953862 -0.300214
-0.0770202 -0.96447 -0.252715
-0.160487 -0.96752 -0.19532
-0.248561 -0.960116 -0.128045
-0.341446 -0.938493 -0.0514385
-0.436689 -0.899028 0.0324176
-0.529821 -0.839641 0.119551
-0.615843 -0.760784 0.204804
-0.690708 -0.665353 0.283245
-0.752019 -0.557649 0.351419
-0.798834 -0.442223 0.407802
-0.831126 -0.323211 0.452508
-0.849396 -0.20419 0.486656
-0.85458 -0.088278 0.511762
-0.848137 0.021793 0.529328
-0.832113 0.123728 0.540628
-0.809078 0.215803 0.546646
-0.781914 0.297004 0.548087
-0.753517 0.36708 0.545403
-0.726478 0.426514 0.53881
-0.702814 0.47642 0.528276
-0.683783 0.518408 0.513512
-0.669775 0.554443 0.493958
-0.660298 0.586695 0.468823
-0.654002 0.617398 0.437152
-0.648706 0.648706 0.397947
-0.641372 0.682597 0.35029
-0.627922 0.720843 0.293425
-0.602835 0.765009 0.226609
-0.558629 0.816057 0.148273
-0.48544 0.871916 0.0641113
-0.398388 0.577247 0.712793
-0.361231 0.66406 0.654628
-0.211903 0.699851 0.682133
0.00904214 0.701012 0.713092
0.271602 0.645131 0.71417
0.526679 0.526679 0.667246
0.730521 0.365853 0.576619
0.867018 0.191202 0.460133
0.942349 0.0220545 0.333904
0.96918 -0.133804 0.206852
0.957841 -0.275071 0.0829266
0.914779 -0.402405 -0.0353467
0.844251 -0.516094 -0.144523
0.750852 -0.615483 -0.239588
0.641289 -0.699651 -0.315018
0.52423 -0.76852 -0.366824
0.408278 -0.823422 -0.394063
0.299603 -0.866708 -0.398818
0.200687 -0.90088 -0.38489
0.110471 -0.927851 -0.356214
0.0253773 -0.948524 -0.315688
-0.059312 -0.962512 -0.264675
-0.147953 -0.967888 -0.20323
-0.24306 -0.961124 -0.131007
-0.344161 -0.937651 -0.0486147
-0.447534 -0.893318 0.0411934
-0.547294 -0.826243 0.133389
-0.637405 -0.737874 0.221939
-0.713424 -0.632459 0.301698
-0.77305 -0.515484 0.369689
-0.815663 -0.392306 0.425193
-0.841668 -0.267554 0.469051
-0.852128 -0.145111 0.502813
-0.84871 -0.0282553 0.528104
-0.83373 0.0803095 0.546301
-0.8101 0.178551 0.558442
-0.781112 0.26524 0.565253
-0.750108 0.34002 0.567207
-0.720121 0.403357 0.56456
-0.693568 0.456409 0.557363
-0.672037 0.500854 0.545447
-0.656174 0.538716 0.528414
-0.645668 0.572213 0.505653
-0.639305 0.603602 0.476397
-0.635041 0.635041 0.439825
-0.630062 0.668477 0.395171
-0.620715 0.705612 0.341795
-0.602228 0.747928 0.279151
-0.568241 0.796561 0.20638
-0.510697 0.85114 0.121443
-0.408966 0.489945 0.76987
-0.483749 0.65075 0.585244
-0.381176 0.713235 0.588218
-0.198531 0.754419 0.625649
0.0469827 0.754729 0.654352
0.319325 0.692081 0.647345
0.568636 0.568636 0.594395
0.76007 0.409179 0.504843
0.886537 0.240449 0.395266
0.957394 0.0781851 0.277999
0.984621 -0.0721454 0.159114
0.97676 -0.210341 0.0411823
0.93841 -0.337589 -0.0736259
0.872151 -0.454335 -0.181472
0.781338 -0.559594 -0.276341
0.672267 -0.651572 -0.351441
0.55412 -0.72904 -0.40181
0.436475 -0.792329 -0.426268
0.326238 -0.843189 -0.427319
0.225985 -0.883922 -0.409406
0.134147 -0.916494 -0.376887
0.046307 -0.941913 -0.332649
-0.0430632 -0.959719 -0.277642
-0.138744 -0.967515 -0.211342
-0.242959 -0.960866 -0.133068
-0.354049 -0.934202 -0.0437744
-0.466473 -0.882965 0.0526769
-0.572597 -0.806016 0.1499
-0.665425 -0.70646 0.241089
-0.740467 -0.590302 0.321328
-0.795914 -0.464273 0.38855
-0.831812 -0.334393 0.443023
-0.849289 -0.205595 0.486249
-0.850233 -0.0818727 0.520001
-0.837245 0.033561 0.545797
-0.813596 0.138291 0.564746
-0.783021 0.230815 0.577584
-0.749365 0.310623 0.584778
-0.716173 0.378143 0.586604
-0.686331 0.434581 0.583171
-0.661818 0.481699 0.574425
-0.643577 0.521602 0.560125
-0.631508 0.556566 0.539844
-0.624532 0.588882 0.513009
-0.620716 0.620716 0.47898
-0.617398 0.654002 0.437152
-0.611219 0.690384 0.387016
-0.597981 0.731245 0.328175
-0.572233 0.77773 0.260166
-0.526845 0.830355 0.181506
-0.452823 0.886142 0.0985095
-0.564493 0.595578 0.57152
-0.520197 0.693427 0.498552
-0.38135 0.759889 0.526442
-0.171005 0.805263 0.567723
0.0920694 0.801128 0.591369
0.365853 0.730521 0.576619
0.603837 0.603837 0.520348
0.781322 0.448256 0.434284
0.898211 0.287538 0.332475
0.965359 0.13402 0.223876
0.993625 -0.00883278 0.112388
0.98988 -0.141906 -0.000415008
0.957057 -0.267151 -0.112566
0.896136 -0.385533 -0.219783
0.809139 -0.496048 -0.315009
0.701758 -0.596113 -0.390108
0.583532 -0.683135 -0.439109
0.464941 -0.756065 -0.460646
0.353568 -0.815743 -0.45777
0.251983 -0.864124 -0.435654
0.157963 -0.903218 -0.399054
0.0661419 -0.934148 -0.350705
-0.02983 -0.956273 -0.29095
-0.134959 -0.966437 -0.218597
-0.250676 -0.958918 -0.132811
-0.373392 -0.926998 -0.0353923
-0.495079 -0.866173 0.0681244
-0.60621 -0.776955 0.169852
-0.699253 -0.664875 0.262652
-0.770302 -0.537916 0.342464
-0.818556 -0.403856 0.408492
-0.845079 -0.269078 0.461993
-0.851992 -0.138545 0.504892
-0.842204 -0.0161068 0.538918
-0.819353 0.0953643 0.565301
-0.78763 0.194031 0.584801
-0.751419 0.279173 0.597856
-0.714847 0.35115 0.604721
-0.681347 0.411206 0.605537
-0.653364 0.461201 0.600341
-0.6322 0.503342 0.589042
-0.618002 0.539977 0.5714
-0.609849 0.573437 0.547042