# vtk DataFile Version 2.0
tmp/0.000.00-10.000.000.001.00101.vtk
ASCII
DATASET UNSTRUCTURED_GRID
POINTS 5000 float
0.25 0.25 0
1.25 0.25 0
2.25 0.25 0
3.25 0.25 0
4.25 0.25 0
5.25 0.25 0
6.25 0.25 0
7.25 0.25 0
8.25 0.25 0
9.25 0.25 0
10.25 0.25 0
11.25 0.25 0
12.25 0.25 0
13.25 0.25 0
14.25 0.25 0
15.25 0.25 0
16.25 0.25 0
17.25 0.25 0
18.25 0.25 0
19.25 0.25 0
20.25 0.25 0
21.25 0.25 0
22.25 0.25 0
23.25 0.25 0
24.25 0.25 0
25.25 0.25 0
26.25 0.25 0
27.25 0.25 0
28.25 0.25 0
29.25 0.25 0
30.25 0.25 0
31.25 0.25 0
32.25 0.25 0
33.25 0.25 0
34.25 0.25 0
35.25 0.25 0
36.25 0.25 0
37.25 0.25 0
38.25 0.25 0
39.25 0.25 0
40.25 0.25 0
41.25 0.25 0
42.25 0.25 0
43.25 0.25 0
44.25 0.25 0
45.25 0.25 0
46.25 0.25 0
47.25 0.25 0
48.25 0.25 0
49.25 0.25 0
0.75 0.75 0
1.75 0.75 0
2.75 0.75 0
3.75 0.75 0
4.75 0.75 0
5.75 0.75 0
6.75 0.75 0
7.75 0.75 0
8.75 0.75 0
9.75 0.75 0
10.75 0.75 0
11.75 0.75 0
12.75 0.75 0
13.75 0.75 0
14.75 0.75 0
15.75 0.75 0
16.75 0.75 0
17.75 0.75 0
18.75 0.75 0
19.75 0.75 0
20.75 0.75 0
21.75 0.75 0
22.75 0.75 0
23.75 0.75 0
24.75 0.75 0
25.75 0.75 0
26.75 0.75 0
27.75 0.75 0
28.75 0.75 0
29.75 0.75 0
30.75 0.75 0
31.75 0.75 0
32.75 0.75 0
33.75 0.75 0
34.75 0.75 0
35.75 0.75 0
36.75 0.75 0
37.75 0.75 0
38.75 0.75 0
39.75 0.75 0
40.75 0.75 0
41.75 0.75 0
42.75 0.75 0
43.75 0.75 0
44.75 0.75 0
45.75 0.75 0
46.75 0.75 0
47.75 0.75 0
48.75 0.75 0
49.75 0.75 0
0.25 1.25 0
1.25 1.25 0
2.25 1.25 0
3.25 1.25 0
4.25 1.25 0
5.25 1.25 0
6.25 1.25 0
7.25 1.25 0
8.25 1.25 0
9.25 1.25 0
10.25 1.25 0
11.25 1.25 0
12.25 1.25 0
13.25 1.25 0
14.25 1.25 0
15.25 1.25 0
16.25 1.25 0
17.25 1.25 0
18.25 1.25 0
19.25 1.25 0
20.25 1.25 0
21.25 1.25 0
22.25 1.25 0
23.25 1.25 0
24.25 1.25 0
25.25 1.25 0
26.25 1.25 0
27.25 1.25 0
28.25 1.25 0
29.25 1.25 0
30.25 1.25 0
31.25 1.25 0
32.25 1.25 0
33.25 1.25 0
34.25 1.25 0
35.25 1.25 0
36.25 1.25 0
37.25 1.25 0
38.25 1.25 0
39.25 1.25 0
40.25 1.25 0
41.25 1.25 0
42.25 1.25 0
43.25 1.25 0
44.25 1.25 0
45.25 1.25 0
46.25 1.25 0
47.25 1.25 0
48.25 1.25 0
49.25 1.25 0
0.75 1.75 0
1.75 1.75 0
2.75 1.75 0
3.75 1.75 0
4.75 1.75 0
5.75 1.75 0
6.75 1.75 0
7.75 1.75 0
8.75 1.75 0
9.75 1.75 0
10.75 1.75 0
11.75 1.75 0
12.75 1.75 0
13.75 1.75 0
14.75 1.75 0
15.75 1.75 0
16.75 1.75 0
17.75 1.75 0
18.75 1.75 0
19.75 1.75 0
20.75 1.75 0
21.75 1.75 0
22.75 1.75 0
23.75 1.75 0
24.75 1.75 0
25.75 1.75 0
26.75 1.75 0
27.75 1.75 0
28.75 1.75 0
29.75 1.75 0
30.75 1.75 0
31.75 1.75 0
32.75 1.75 0
33.75 1.75 0
34.75 1.75 0
35.75 1.75 0
36.75 1.75 0
37.75 1.75 0
38.75 1.75 0
39.75 1.75 0
40.75 1.75 0
41.75 1.75 0
42.75 1.75 0
43.75 1.75 0
44.75 1.75 0
45.75 1.75 0
46.75 1.75 0
47.75 1.75 0
48.75 1.75 0
49.75 1.75 0
0.25 2.25 0
1.25 2.25 0
2.25 2.25 0
3.25 2.25 0
4.25 2.25 0
5.25 2.25 0
6.25 2.25 0
7.25 2.25 0
8.25 2.25 0
9.25 2.25 0
10.25 2.25 0
11.25 2.25 0
12.25 2.25 0
13.25 2.25 0
14.25 2.25 0
15.25 2.25 0
16.25 2.25 0
17.25 2.25 0
18.25 2.25 0
19.25 2.25 0
20.25 2.25 0
21.25 2.25 0
22.25 2.25 0
23.25 2.25 0
24.25 2.25 0
25.25 2.25 0
26.25 2.25 0
27.25 2.25 0
28.25 2.25 0
29.25 2.25 0
30.25 2.25 0
31.25 2.25 0
32.25 2.25 0
33.25 2.25 0
34.25 2.25 0
35.25 2.25 0
36.25 2.25 0
37.25 2.25 0
38.25 2.25 0
39.25 2.25 0
40.25 2.25 0
41.25 2.25 0
42.25 2.25 0
43.25 2.25 0
44.25 2.25 0
45.25 2.25 0
46.25 2.25 0
47.25 2.25 0
48.25 2.25 0
49.25 2.25 0
0.75 2.75 0
1.75 2.75 0
2.75 2.75 0
3.75 2.75 0
4.75 2.75 0
5.75 2.75 0
6.75 2.75 0
7.75 2.75 0
8.75 2.75 0
9.75 2.75 0
10.75 2.75 0
11.75 2.75 0
12.75 2.75 0
13.75 2.75 0
14.75 2.75 0
15.75 2.75 0
16.75 2.75 0
17.75 2.75 0
18.75 2.75 0
19.75 2.75 0
20.75 2.75 0
21.75 2.75 0
22.75 2.75 0
23.75 2.75 0
24.75 2.75 0
25.75 2.75 0
26.75 2.75 0
27.75 2.75 0
28.75 2.75 0
29.75 2.75 0
30.75 2.75 0
31.75 2.75 0
32.75 2.75 0
33.75 2.75 0
34.75 2.75 0
35.75 2.75 0
36.75 2.75 0
37.75 2.75 0
38.75 2.75 0
39.75 2.75 0
40.75 2.75 0
41.75 2.75 0
42.75 2.75 0
43.75 2.75 0
44.75 2.75 0
45.75 2.75 0
46.75 2.75 0
47.75 2.75 0
48.75 2.75 0
49.75 2.75 0
0.25 3.25 0
1.25 3.25 0
2.25 3.25 0
3.25 3.25 0
4.25 3.25 0
5.25 3.25 0
6.25 3.25 0
7.25 3.25 0
8.25 3.25 0
9.25 3.25 0
10.25 3.25 0
11.25 3.25 0
12.25 3.25 0
13.25 3.25 0
14.25 3.25 0
15.25 3.25 0
16.25 3.25 0
17.25 3.25 0
18.25 3.25 0
19.25 3.25 0
20.25 3.25 0
21.25 3.25 0
22.25 3.25 0
23.25 3.25 0
24.25 3.25 0
25.25 3.25 0
26.25 3.25 0
27.25 3.25 0
28.25 3.25 0
29.25 3.25 0
30.25 3.25 0
31.25 3.25 0
32.25 3.25 0
33.25 3.25 0
34.25 3.25 0
35.25 3.25 0
36.25 3.25 0
37.25 3.25 0
38.25 3.25 0
39.25 3.25 0
40.25 3.25 0
41.25 3.25 0
42.25 3.25 0
43.25 3.25 0
44.25 3.25 0
45.25 3.25 0
46.25 3.25 0
47.25 3.25 0
48.25 3.25 0
49.25 3.25 0
0.75 3.75 0
1.75 3.75 0
2.75 3.75 0
3.75 3.75 0
4.75 3.75 0
5.75 3.75 0
6.75 3.75 0
7.75 3.75 0
8.75 3.75 0
9.75 3.75 0
10.75 3.75 0
11.75 3.75 0
12.75 3.75 0
13.75 3.75 0
14.75 3.75 0
15.75 3.75 0
16.75 3.75 0
17.75 3.75 0
18.75 3.75 0
19.75 3.75 0
20.75 3.75 0
21.75 3.75 0
22.75 3.75 0
23.75 3.75 0
24.75 3.75 0
25.75 3.75 0
26.75 3.75 0
27.75 3.75 0
28.75 3.75 0
29.75 3.75 0
30.75 3.75 0
31.75 3.75 0
32.75 3.75 0
33.75 3.75 0
34.75 3.75 0
35.75 3.75 0
36.75 3.75 0
37.75 3.75 0
38.75 3.75 0
39.75 3.75 0
40.75 3.75 0
41.75 3.75 0
42.75 3.75 0
43.75 3.75 0
44.75 3.75 0
45.75 3.75 0
46.75 3.75 0
47.75 3.75 0
48.75 3.75 0
49.75 3.75 0
0.25 4.25 0
1.25 4.25 0
2.25 4.25 0
3.25 4.25 0
4.25 4.25 0
5.25 4.25 0
6.25 4.25 0
7.25 4.25 0
8.25 4.25 0
9.25 4.25 0
10.25 4.25 0
11.25 4.25 0
12.25 4.25 0
13.25 4.25 0
14.25 4.25 0
15.25 4.25 0
16.25 4.25 0
17.25 4.25 0
18.25 4.25 0
19.25 4.25 0
20.25 4.25 0
21.25 4.25 0
22.25 4.25 0
23.25 4.25 0
24.25 4.25 0
25.25 4.25 0
26.25 4.25 0
27.25 4.25 0
28.25 4.25 0
29.25 4.25 0
30.25 4.25 0
31.25 4.25 0
32.25 4.25 0
33.25 4.25 0
34.25 4.25 0
35.25 4.25 0
36.25 4.25 0
37.25 4.25 0
38.25 4.25 0
39.25 4.25 0
40.25 4.25 0
41.25 4.25 0
42.25 4.25 0
43.25 4.25 0
44.25 4.25 0
45.25 4.25 0
46.25 4.25 0
47.25 4.25 0
48.25 4.25 0
49.25 4.25 0
0.75 4.75 0
1.75 4.75 0
2.75 4.75 0
3.75 4.75 0
4.75 4.75 0
5.75 4.75 0
6.75 4.75 0
7.75 4.75 0
8.75 4.75 0
9.75 4.75 0
10.75 4.75 0
11.75 4.75 0
12.75 4.75 0
13.75 4.75 0
14.75 4.75 0
15.75 4.75 0
16.75 4.75 0
17.75 4.75 0
18.75 4.75 0
19.75 4.75 0
20.75 4.75 0
21.75 4.75 0
22.75 4.75 0
23.75 4.75 0
24.75 4.75 0
25.75 4.75 0
26.75 4.75 0
27.75 4.75 0
28.75 4.75 0
29.75 4.75 0
30.75 4.75 0
31.75 4.75 0
32.75 4.75 0
33.75 4.75 0
34.75 4.75 0
35.75 4.75 0
36.75 4.75 0
37.75 4.75 0
38.75 4.75 0
39.75 4.75 0
40.75 4.75 0
41.75 4.75 0
42.75 4.75 0
43.75 4.75 0
44.75 4.75 0
45.75 4.75 0
46.75 4.75 0
47.75 4.75 0
48.75 4.75 0
49.75 4.75 0
0.25 5.25 0
1.25 5.25 0
2.25 5.25 0
3.25 5.25 0
4.25 5.25 0
5.25 5.25 0
6.25 5.25 0
7.25 5.25 0
8.25 5.25 0
9.25 5.25 0
10.25 5.25 0
11.25 5.25 0
12.25 5.25 0
13.25 5.25 0
14.25 5.25 0
15.25 5.25 0
16.25 5.25 0
17.25 5.25 0
18.25 5.25 0
19.25 5.25 0
20.25 5.25 0
21.25 5.25 0
22.25 5.25 0
23.25 5.25 0
24.25 5.25 0
25.25 5.25 0
26.25 5.25 0
27.25 5.25 0
28.25 5.25 0
29.25 5.25 0
30.25 5.25 0
31.25 5.25 0
32.25 5.25 0
33.25 5.25 0
34.25 5.25 0
35.25 5.25 0
36.25 5.25 0
37.25 5.25 0
38.25 5.25 0
39.25 5.25 0
40.25 5.25 0
41.25 5.25 0
42.25 5.25 0
43.25 5.25 0
44.25 5.25 0
45.25 5.25 0
46.25 5.25 0
47.25 5.25 0
48.25 5.25 0
49.25 5.25 0
0.75 5.75 0
1.75 5.75 0
2.75 5.75 0
3.75 5.75 0
4.75 5.75 0
5.75 5.75 0
6.75 5.75 0
7.75 5.75 0
8.75 5.75 0
9.75 5.75 0
10.75 5.75 0
11.75 5.75 0
12.75 5.75 0
13.75 5.75 0
14.75 5.75 0
15.75 5.75 0
16.75 5.75 0
17.75 5.75 0
18.75 5.75 0
19.75 5.75 0
20.75 5.75 0
21.75 5.75 0
22.75 5.75 0
23.75 5.75 0
24.75 5.75 0
25.75 5.75 0
26.75 5.75 0
27.75 5.75 0
28.75 5.75 0
29.75 5.75 0
30.75 5.75 0
31.75 5.75 0
32.75 5.75 0
33.75 5.75 0
34.75 5.75 0
35.75 5.75 0
36.75 5.75 0
37.75 5.75 0
38.75 5.75 0
39.75 5.75 0
40.75 5.75 0
41.75 5.75 0
42.75 5.75 0
43.75 5.75 0
44.75 5.75 0
45.75 5.75 0
46.75 5.75 0
47.75 5.75 0
48.75 5.75 0
49.75 5.75 0
0.25 6.25 0
1.25 6.25 0
2.25 6.25 0
3.25 6.25 0
4.25 6.25 0
5.25 6.25 0
6.25 6.25 0
7.25 6.25 0
8.25 6.25 0
9.25 6.25 0
10.25 6.25 0
11.25 6.25 0
12.25 6.25 0
13.25 6.25 0
14.25 6.25 0
15.25 6.25 0
16.25 6.25 0
17.25 6.25 0
18.25 6.25 0
19.25 6.25 0
20.25 6.25 0
21.25 6.25 0
22.25 6.25 0
23.25 6.25 0
24.25 6.25 0
25.25 6.25 0
26.25 6.25 0
27.25 6.25 0
28.25 6.25 0
29.25 6.25 0
30.25 6.25 0
31.25 6.25 0
32.25 6.25 0
33.25 6.25 0
34.25 6.25 0
35.25 6.25 0
36.25 6.25 0
37.25 6.25 0
38.25 6.25 0
39.25 6.25 0
40.25 6.25 0
41.25 6.25 0
42.25 6.25 0
43.25 6.25 0
44.25 6.25 0
45.25 6.25 0
46.25 6.25 0
47.25 6.25 0
48.25 6.25 0
49.25 6.25 0
0.75 6.75 0
1.75 6.75 0
2.75 6.75 0
3.75 6.75 0
4.75 6.75 0
5.75 6.75 0
6.75 6.75 0
7.75 6.75 0
8.75 6.75 0
9.75 6.75 0
10.75 6.75 0
11.75 6.75 0
12.75 6.75 0
13.75 6.75 0
14.75 6.75 0
15.75 6.75 0
16.75 6.75 0
17.75 6.75 0
18.75 6.75 0
19.75 6.75 0
20.75 6.75 0
21.75 6.75 0
22.75 6.75 0
23.75 6.75 0
24.75 6.75 0
25.75 6.75 0
26.75 6.75 0
27.75 6.75 0
28.75 6.75 0
29.75 6.75 0
30.75 6.75 0
31.75 6.75 0
32.75 6.75 0
33.75 6.75 0
34.75 6.75 0
35.75 6.75 0
36.75 6.75 0
37.75 6.75 0
38.75 6.75 0
39.75 6.75 0
40.75 6.75 0
41.75 6.75 0
42.75 6.75 0
43.75 6.75 0
44.75 6.75 0
45.75 6.75 0
46.75 6.75 0
47.75 6.75 0
48.75 6.75 0
49.75 6.75 0
0.25 7.25 0
1.25 7.25 0
2.25 7.25 0
3.25 7.25 0
4.25 7.25 0
5.25 7.25 0
6.25 7.25 0
7.25 7.25 0
8.25 7.25 0
9.25 7.25 0
10.25 7.25 0
11.25 7.25 0
12.25 7.25 0
13.25 7.25 0
14.25 7.25 0
15.25 7.25 0
16.25 7.25 0
17.25 7.25 0
18.25 7.25 0
19.25 7.25 0
20.25 7.25 0
21.25 7.25 0
22.25 7.25 0
23.25 7.25 0
24.25 7.25 0
25.25 7.25 0
26.25 7.25 0
27.25 7.25 0
28.25 7.25 0
29.25 7.25 0
30.25 7.25 0
31.25 7.25 0
32.25 7.25 0
33.25 7.25 0
34.25 7.25 0
35.25 7.25 0
36.25 7.25 0
37.25 7.25 0
38.25 7.25 0
39.25 7.25 0
40.25 7.25 0
41.25 7.25 0
42.25 7.25 0
43.25 7.25 0
44.25 7.25 0
45.25 7.25 0
46.25 7.25 0
47.25 7.25 0
48.25 7.25 0
49.25 7.25 0
0.75 7.75 0
1.75 7.75 0
2.75 7.75 0
3.75 7.75 0
4.75 7.75 0
5.75 7.75 0
6.75 7.75 0
7.75 7.75 0
8.75 7.75 0
9.75 7.75 0
10.75 7.75 0
11.75 7.75 0
12.75 7.75 0
13.75 7.75 0
14.75 7.75 0
15.75 7.75 0
16.75 7.75 0
17.75 7.75 0
18.75 7.75 0
19.75 7.75 0
20.75 7.75 0
21.75 7.75 0
[...]
POINT_DATA 5000
VECTORS velocity float
0.527214 0.527214 0.666402
0.587422 0.454885 0.66934
0.668434 0.355126 0.653514
0.752661 0.233241 0.615711
0.826731 0.0912129 0.555153
0.878474 -0.0645465 0.473409
0.899127 -0.224858 0.375512
0.884882 -0.380136 0.269221
0.836904 -0.522339 0.163564
0.760313 -0.64606 0.0673175
0.662728 -0.748761 -0.012228
0.552783 -0.830375 -0.0700644
0.438838 -0.892555 -0.10376
0.328036 -0.937847 -0.113294
0.225755 -0.96898 -0.100556
0.135445 -0.9884 -0.0687009
0.0587436 -0.998042 -0.0215005
-0.00422519 -0.9993 0.0371732
-0.0544728 -0.993115 0.103711
-0.0937701 -0.980099 0.174965
-0.124311 -0.960667 0.248326
-0.148443 -0.935131 0.321706
-0.168458 -0.903771 0.393471
-0.186453 -0.866874 0.462348
-0.204237 -0.824744 0.527337
-0.223275 -0.777716 0.587627
-0.244656 -0.726147 0.642536
-0.269089 -0.670418 0.69147
-0.296898 -0.610932 0.733903
-0.328044 -0.548114 0.769388
-0.362153 -0.482424 0.797567
-0.398555 -0.414359 0.818206
-0.436349 -0.344467 0.831229
-0.474483 -0.273353 0.836746
-0.511841 -0.201678 0.835072
-0.547352 -0.13016 0.826719
-0.58009 -0.0595453 0.812373
-0.609369 0.00941654 0.792831
-0.634804 0.0760239 0.768924
-0.656346 0.139673 0.741419
-0.674271 0.199912 0.710911
-0.689126 0.256485 0.677732
-0.701644 0.309369 0.641861
-0.71262 0.358809 0.602851
-0.722734 0.405365 0.559763
-0.732297 0.450008 0.511111
-0.740777 0.494334 0.454845
-0.745898 0.540947 0.388604
-0.742007 0.593919 0.310944
-0.718493 0.658243 0.224686
0.521633 0.521633 0.675128
0.602679 0.430416 0.671952
0.696293 0.316758 0.644081
0.785664 0.182654 0.591075
0.856876 0.0318587 0.514537
0.899129 -0.127931 0.418571
0.906239 -0.287326 0.310121
0.877162 -0.437493 0.197955
0.815364 -0.571715 0.0912311
0.727538 -0.686065 -0.00183361
0.622135 -0.779313 -0.0749577
0.507975 -0.852349 -0.124349
0.393108 -0.907376 -0.148779
0.284043 -0.947124 -0.149251
0.185369 -0.974244 -0.128398
0.0997212 -0.990954 -0.0898131
0.0279951 -0.998907 -0.0374332
-0.030298 -0.99923 0.0249167
-0.0766345 -0.992636 0.0938142
-0.113099 -0.979555 0.166373
-0.142064 -0.960256 0.240261
-0.165932 -0.93493 0.313645
-0.186956 -0.903741 0.385096
-0.207113 -0.866864 0.453488
-0.228026 -0.82449 0.5179
-0.250915 -0.776841 0.577546
-0.276578 -0.724169 0.63173
-0.305391 -0.66677 0.67982
-0.337316 -0.604987 0.721255
-0.371939 -0.539233 0.755572
-0.408525 -0.469996 0.782439
-0.44609 -0.397855 0.801695
-0.483496 -0.323492 0.813379
-0.519556 -0.247687 0.817748
-0.553152 -0.171315 0.815276
-0.583338 -0.09532 0.806617
-0.609439 -0.0206752 0.792563
-0.631115 0.0516772 0.773966
-0.648393 0.120895 0.751646
-0.661647 0.186307 0.726301
-0.671555 0.247477 0.698405
-0.678995 0.304252 0.668129
-0.684941 0.356786 0.635263
-0.690303 0.405572 0.59916
-0.695738 0.451482 0.55867
-0.701342 0.495877 0.51208
-0.706076 0.540848 0.457099
-0.706656 0.589646 0.391096
-0.695427 0.647285 0.312094
-0.658243 0.718493 0.224686
0.454885 0.587422 0.66934
0.520077 0.520077 0.677524
0.617249 0.420041 0.665259
0.719715 0.29781 0.627152
0.811603 0.155563 0.563117
0.879508 -0.0010782 0.475883
0.914115 -0.163392 0.371076
0.911307 -0.321862 0.256758
0.872076 -0.468262 0.142177
0.801487 -0.596906 0.0363593
0.707236 -0.704982 -0.0530876
0.598166 -0.792219 -0.120775
0.482978 -0.860161 -0.163879
0.369247 -0.911328 -0.182039
0.262817 -0.948489 -0.176907
0.167563 -0.97415 -0.15151
0.0854613 -0.990296 -0.109587
0.0168601 -0.998342 -0.0550332
-0.0391466 -0.999197 0.00850054
-0.0843197 -0.993394 0.0778334
-0.120908 -0.981213 0.150339
-0.151339 -0.962785 0.223924
-0.177987 -0.93816 0.296944
-0.202996 -0.90736 0.36809
-0.228166 -0.870399 0.436286
-0.254874 -0.827315 0.500588
-0.284029 -0.778188 0.560134
-0.316052 -0.723172 0.614112
-0.350883 -0.662522 0.661775
-0.388018 -0.596629 0.702479
-0.426582 -0.526037 0.73574
-0.465432 -0.451454 0.76129
-0.503287 -0.37374 0.779115
-0.538863 -0.293887 0.789466
-0.571008 -0.212987 0.792834
-0.598815 -0.132189 0.789903
-0.621701 -0.0526518 0.781483
-0.63946 0.0245168 0.768434
-0.65227 0.0983276 0.751582
-0.660665 0.167981 0.731645
-0.66547 0.232932 0.709149
-0.667709 0.292935 0.684363
-0.668488 0.348074 0.657243
-0.668867 0.398771 0.627374
-0.669707 0.445803 0.59393
-0.671461 0.490351 0.555604
-0.673821 0.534154 0.510535
-0.674979 0.579861 0.45625
-0.669936 0.631687 0.390073
-0.647285 0.695427 0.312094
0.430416 0.602679 0.671952
0.523659 0.523659 0.671984
0.634784 0.41783 0.649975
0.744345 0.288742 0.602145
0.837316 0.140152 0.52845
0.901332 -0.0207318 0.432632
0.928786 -0.184465 0.321447
0.9175 -0.341643 0.203652
0.870158 -0.484737 0.0886288
0.793021 -0.609011 -0.0149471
0.694419 -0.712567 -0.100149
0.583329 -0.795831 -0.162423
0.468196 -0.860747 -0.199766
0.356098 -0.909966 -0.212501
0.252267 -0.946179 -0.202748
0.159969 -0.971705 -0.173781
0.0806347 -0.98831 -0.129386
0.014167 -0.997205 -0.0733604
-0.0406689 -0.999131 -0.00916119
-0.0858512 -0.994483 0.0602689
-0.123744 -0.983422 0.132545
-0.156804 -0.965953 0.205785
-0.187353 -0.941984 0.278505
-0.217411 -0.911367 0.34949
-0.248576 -0.87393 0.417681
-0.281943 -0.829522 0.482081
-0.318046 -0.778068 0.541717
-0.356845 -0.71964 0.595635
-0.397752 -0.654521 0.642958
-0.439718 -0.583263 0.682972
-0.481373 -0.506701 0.715216
-0.521204 -0.425925 0.73955
-0.557749 -0.342217 0.756177
-0.589764 -0.256968 0.765602
-0.616347 -0.171595 0.768552
-0.637007 -0.0874685 0.765879
-0.651687 -0.00585372 0.758466
-0.66074 0.0721462 0.747139
-0.664883 0.145645 0.73261
-0.66511 0.214028 0.715417
-0.662596 0.276988 0.695877
-0.658583 0.334553 0.67405
-0.65426 0.387087 0.649698
-0.650636 0.435289 0.622252
-0.648386 0.480201 0.590764
-0.647633 0.523295 0.553836
-0.647474 0.566717 0.509518
-0.644823 0.613855 0.455395
-0.631687 0.669936 0.390073
-0.593919 0.742007 0.310944
0.355126 0.668434 0.653514
0.420041 0.617249 0.665259
0.532897 0.532897 0.657298
0.655462 0.422075 0.626276
0.770331 0.287224 0.569291
0.863052 0.13375 0.487085
0.922674 -0.0299483 0.384417
0.943424 -0.194093 0.268846
0.924876 -0.34967 0.149451
0.871041 -0.489929 0.0354673
0.788989 -0.610968 -0.0649194
0.687388 -0.711576 -0.145457
0.575181 -0.792611 -0.202321
0.460518 -0.856202 -0.234181
0.350021 -0.904972 -0.24189
0.248409 -0.94146 -0.227918
0.158437 -0.96778 -0.195701
0.0810885 -0.985502 -0.149035
0.0159021 -0.995668 -0.0916055
-0.0386256 -0.998897 -0.0266891
-0.0846483 -0.995483 0.0429851
-0.12462 -0.985489 0.115243
-0.161011 -0.968807 0.188385
-0.196082 -0.945198 0.26106
-0.231717 -0.91433 0.332127
-0.269291 -0.87582 0.400526
-0.309567 -0.829317 0.465191
-0.352632 -0.774597 0.525023
-0.397897 -0.711704 0.578927
-0.444166 -0.641054 0.625912
-0.489808 -0.563511 0.665239
-0.532999 -0.480363 0.696537
-0.571992 -0.393218 0.719864
-0.605352 -0.303844 0.735681
-0.632108 -0.214017 0.744739
-0.651815 -0.125392 0.74794
-0.664546 -0.0394314 0.746206
-0.670832 0.0426399 0.740383
-0.671577 0.119862 0.731175
-0.667959 0.191569 0.719119
-0.661319 0.257417 0.704552
-0.653045 0.317396 0.687598
-0.644459 0.371826 0.668145
-0.636698 0.421345 0.64582
-0.6306 0.466896 0.619961
-0.626551 0.509754 0.589564
-0.624198 0.551674 0.553202
-0.621708 0.595303 0.509013
-0.613855 0.644823 0.455395
-0.589646 0.706656 0.391096
0.316758 0.696293 0.644081
0.41783 0.634784 0.649975
0.546668 0.546668 0.634278
0.678415 0.43111 0.594892
0.796666 0.291419 0.529527
0.88785 0.134341 0.440085
0.942692 -0.0309532 0.332226
0.957228 -0.194732 0.213996
0.932501 -0.348586 0.0944955
0.873482 -0.486546 -0.0173657
0.787726 -0.605399 -0.113925
0.684033 -0.704395 -0.189542
0.571227 -0.784613 -0.241004
0.457166 -0.848191 -0.267528
0.348082 -0.897624 -0.270389
0.248255 -0.935253 -0.252331
0.160018 -0.962987 -0.216912
0.0839737 -0.982218 -0.167917
0.0193564 -0.993861 -0.10893
-0.0355631 -0.998439 -0.0430637
-0.0830838 -0.996173 0.0271363
-0.125732 -0.987044 0.0996777
-0.165977 -0.970833 0.173017
-0.206012 -0.947145 0.245917
-0.247563 -0.915445 0.31729
-0.291737 -0.875126 0.386062
-0.338895 -0.825633 0.451087
-0.388587 -0.766642 0.511137
-0.439573 -0.69826 0.564986
-0.489995 -0.621194 0.611575
-0.537666 -0.536792 0.650207
-0.580448 -0.446942 0.680679
-0.616581 -0.353832 0.7033
-0.644913 -0.259689 0.718783
-0.66497 -0.166554 0.728062
-0.676915 -0.0761707 0.732109
-0.681441 0.0100647 0.731804
-0.679643 0.0910995 0.727864
-0.672895 0.166221 0.720821
-0.662717 0.235057 0.711023
-0.650665 0.297572 0.698632
-0.638203 0.354059 0.683622
-0.626602 0.405116 0.665771
-0.616839 0.451613 0.644636
-0.609482 0.494691 0.619526
-0.604519 0.535825 0.589447
-0.600902 0.577084 0.553073
-0.595303 0.621708 0.509013
-0.579861 0.674979 0.45625
-0.540947 0.745898 0.388604
0.233241 0.752661 0.615711
0.29781 0.719715 0.627152
0.422075 0.655462 0.626276
0.563782 0.563782 0.603572
0.702413 0.443846 0.556432
0.822142 0.300216 0.483687
0.910682 0.140689 0.388414
0.960551 -0.0252009 0.276959
0.969432 -0.188083 0.157566
0.939512 -0.340272 0.0391555
0.876389 -0.476525 -0.0697646
0.787865 -0.594152 -0.162027
0.682742 -0.692675 -0.232517
0.569687 -0.773222 -0.27854
0.456288 -0.83782 -0.299766
0.348431 -0.888762 -0.297823
0.250022 -0.928165 -0.27568
0.163025 -0.957737 -0.236988
0.0877187 -0.978717 -0.18552
0.0230751 -0.991918 -0.124762
-0.0328271 -0.997795 -0.0576874
-0.0824089 -0.99651 0.0133238
-0.128251 -0.987968 0.0864374
-0.172814 -0.971831 0.160247
-0.218196 -0.947532 0.233611
-0.265929 -0.91431 0.305483
-0.316785 -0.871322 0.37476
-0.370624 -0.817837 0.440205
-0.426336 -0.75351 0.500459
-0.481947 -0.678671 0.554195
-0.534927 -0.594507 0.600345
-0.582656 -0.503031 0.638334
-0.622911 -0.406818 0.668192
-0.654207 -0.308607 0.690489
-0.675926 -0.210948 0.706134
-0.688255 -0.115979 0.716139
-0.692022 -0.0253543 0.721431
-0.688515 0.0597298 0.722758
-0.679312 0.138493 0.720663
-0.666135 0.210532 0.7155
-0.650723 0.275796 0.707457
-0.634707 0.334565 0.696572
-0.619506 0.387412 0.682733
-0.60623 0.435165 0.66567
-0.595599 0.478876 0.644934
-0.587826 0.51983 0.619869
-0.582352 0.559689 0.589589
-0.577084 0.600902 0.553073
-0.566717 0.647474 0.509518
-0.540848 0.706076 0.457099
0.182654 0.785664 0.591075
0.288742 0.744345 0.602145
0.43111 0.678415 0.594892
0.583123 0.583123 0.565629
0.726312 0.459275 0.511407
0.845748 0.312612 0.432416
0.930741 0.151678 0.332739
0.97559 -0.0139959 0.219153
0.979376 -0.175632 0.0998805
0.945118 -0.326315 -0.0164544
0.878778 -0.461439 -0.121751
0.78824 -0.578685 -0.209287
0.682228 -0.677691 -0.274408
0.569228 -0.759501 -0.314863
0.456572 -0.825934 -0.33072
0.349831 -0.879033 -0.323912
0.252575 -0.920674 -0.297601
0.166441 -0.952371 -0.255514
0.0914234 -0.975232 -0.201407
0.0262642 -0.989989 -0.138677
-0.0311222 -0.99705 -0.070166
-0.0832586 -0.996526 0.0018933
-0.132766 -0.988244 0.0758132
-0.182074 -0.971728 0.150313
-0.233159 -0.946207 0.22434
-0.287297 -0.910674 0.296872
-0.344822 -0.864049 0.366767
-0.404961 -0.805479 0.432678
-0.465815 -0.734738 0.493128
-0.524618 -0.652586 0.546724
-0.578249 -0.560911 0.592458
-0.623882 -0.462528 0.629951
-0.659519 -0.360695 0.659495
-0.684241 -0.258569 0.681877
-0.698156 -0.158827 0.698106
-0.702185 -0.0635058 0.709157
-0.697799 0.0259707 0.715822
-0.686796 0.108709 0.718674
-0.671123 0.18426 0.718082
-0.652725 0.252558 0.714258
-0.633425 0.313878 0.707286
-0.614808 0.368788 0.697141
-0.598133 0.418095 0.683691
-0.584258 0.4628 0.666677
-0.573566 0.50407 0.645705
-0.565815 0.543297 0.620227
-0.559689 0.582352 0.589589
-0.551674 0.624198 0.553202
-0.534154 0.673821 0.510535
-0.494334 0.740777 0.454845
0.0912129 0.826731 0.555153
0.155563 0.811603 0.563117
0.287224 0.770331 0.569291
0.443846 0.702413 0.556432
0.603598 0.603598 0.520902
0.749069 0.476395 0.460373
0.866629 0.327609 0.376333
0.947366 0.166212 0.273625
0.987242 0.00141724 0.159222
0.986461 -0.158743 0.0411769
0.948603 -0.308118 -0.0722251
0.8798 -0.442639 -0.17327
0.787903 -0.56023 -0.255637
0.681502 -0.660512 -0.315085
0.56888 -0.744336 -0.349769
0.45711 -0.813246 -0.360114
0.351461 -0.86899 -0.348328
0.25519 -0.913193 -0.317736
0.169641 -0.947189 -0.272132
0.094551 -0.971972 -0.215246
0.0284651 -0.988217 -0.150391
-0.0308445 -0.996295 -0.0802823
-0.0859854 -0.996272 -0.00701104
-0.139603 -0.987878 0.0678796
-0.194074 -0.970474 0.143234
-0.251203 -0.943047 0.218081
-0.311916 -0.904315 0.291416
-0.375974 -0.852979 0.362036
-0.441804 -0.788173 0.428477
-0.506608 -0.709987 0.489149
-0.566837 -0.619868 0.542641
-0.618977 -0.520608 0.588076
-0.660322 -0.415877 0.625316
-0.689441 -0.3095 0.65489
-0.706215 -0.204837 0.677718
-0.711581 -0.104472 0.694793
-0.707179 -0.0101762 0.706961
-0.695041 0.0769674 0.714839
-0.677362 0.156428 0.718826
-0.656329 0.228115 0.719163
-0.633981 0.292305 0.715979
-0.612098 0.349573 0.70932
-0.592102 0.400731 0.699164
-0.574996 0.446758 0.68541
-0.561311 0.488754 0.667869
-0.551019 0.527945 0.64626
-0.543297 0.565815 0.620227
-0.535825 0.604519 0.589447
-0.523295 0.647633 0.553836
-0.495877 0.701342 0.51208
0.0318587 0.856876 0.514537
0.140152 0.837316 0.52845
0.291419 0.796666 0.529527
0.459275 0.726312 0.511407
0.62416 0.62416 0.469947
0.76976 0.494233 0.403984
0.884075 0.344226 0.316101
0.960021 0.183216 0.211642
0.995029 0.0198464 0.0975928
0.990169 -0.138684 -0.0182478
0.949363 -0.286955 -0.127936
0.878775 -0.421337 -0.22412
0.786139 -0.539881 -0.300855
0.679858 -0.642084 -0.354289
0.56798 -0.728519 -0.382961
0.457299 -0.800389 -0.387627
0.352788 -0.859124 -0.370739
0.257405 -0.906092 -0.335769
0.172224 -0.942456 -0.286559
0.0967622 -0.96912 -0.226812
0.0293888 -0.98672 -0.15975
-0.0322449 -0.995602 -0.0879631
-0.0908179 -0.995777 -0.0133931
-0.148984 -0.986858 0.0625681
-0.209032 -0.967995 0.138896
-0.27252 -0.937889 0.214701
-0.339897 -0.894962 0.288985
-0.410171 -0.837751 0.360463
-0.480794 -0.765539 0.427536
-0.547994 -0.679008 0.488519
-0.607577 -0.580561 0.542032
-0.655955 -0.474033 0.587381
-0.690932 -0.363877 0.624665
-0.711948 -0.254267 0.654583
-0.719831 -0.148516 0.678075
-0.71635 -0.0489137 0.696025
-0.703782 0.0431543 0.709104
-0.684606 0.127013 0.717762
-0.661286 0.202524 0.722278
-0.636114 0.269964 0.722827
-0.611091 0.329926 0.719525
-0.58783 0.383243 0.712447
-0.567492 0.430902 0.701624
-0.550746 0.473978 0.68704
-0.537733 0.513603 0.668621
-0.527945 0.551019 0.64626
-0.51983 0.587826 0.619869
-0.509754 0.626551 0.589564
-0.490351 0.671461 0.555604
-0.450008 0.732297 0.511111
-0.0645465 0.878474 0.473409
-0.0010782 0.879508 0.475883
0.13375 0.863052 0.487085
0.300216 0.822142 0.483687
0.476395 0.749069 0.460373
0.643841 0.643841 0.413446
0.787609 0.511884 0.342996
0.897534 0.361533 0.252442
0.9683 0.201661 0.147402
0.998589 0.0401599 0.0347488
0.990106 -0.116644 -0.0780047
0.946954 -0.264005 -0.183247
0.875227 -0.398642 -0.273973
0.782472 -0.518635 -0.344609
0.676845 -0.623267 -0.391687
0.566114 -0.712761 -0.414111
0.456768 -0.787933 -0.412945
0.353478 -0.84987 -0.390862
0.258922 -0.899686 -0.35146
0.173934 -0.93839 -0.298617
0.0978333 -0.966817 -0.235996
0.0288423 -0.985581 -0.166726
-0.0354962 -0.995009 -0.0932584
-0.0979214 -0.995043 -0.0173701
-0.161077 -0.985134 0.0597149
-0.227111 -0.964168 0.137117
-0.297233 -0.930507 0.214032
-0.371236 -0.882271 0.28945
-0.447152 -0.817943 0.361973
-0.521302 -0.737206 0.429851
-0.588972 -0.641655 0.491315
-0.645599 -0.534892 0.545061
-0.687953 -0.42181 0.590591
-0.714734 -0.307448 0.628196
-0.726468 -0.196043 0.658643
-0.724969 -0.0906182 0.682795
-0.71276 0.00697521 0.701374
-0.692641 0.0958201 0.714889
-0.667402 0.175683 0.723678
-0.639631 0.246827 0.727976
-0.61159 0.309871 0.727968
-0.585107 0.365687 0.723825
-0.561521 0.415292 0.7157
-0.541649 0.459771 0.703723
-0.525774 0.500217 0.688001
-0.513603 0.537733 0.668621
-0.50407 0.573566 0.645705
-0.494691 0.609482 0.619526
-0.480201 0.648386 0.590764
-0.451482 0.695738 0.55867
-0.127931 0.899129 0.418571
-0.0207318 0.901332 0.432632
0.134341 0.88785 0.440085
0.312612 0.845748 0.432416
0.494233 0.76976 0.403984
0.661801 0.661801 0.352191
0.802013 0.528547 0.278232
0.906625 0.378673 0.186113
0.971953 0.220585 0.0815502
0.997705 0.0612966 -0.0287701
0.986039 -0.0937304 -0.137627
0.941121 -0.24036 -0.237734
0.868895 -0.375576 -0.322433
0.776649 -0.497405 -0.386529
0.672228 -0.604841 -0.426938
0.563062 -0.6977 -0.442918
0.455308 -0.776376 -0.435814
0.353333 -0.841597 -0.408497
0.259556 -0.89423 -0.364669
0.1746 -0.93515 -0.308235
0.0976172 -0.96515 -0.242808
0.0266973 -0.984839 -0.171406
-0.0407168 -0.994517 -0.0963224
-0.107418 -0.99403 -0.0191431
-0.176013 -0.982612 0.0591039
-0.248439 -0.958809 0.137704
-0.325396 -0.920592 0.215936
-0.405789 -0.865813 0.29275
-0.486436 -0.793089 0.366593
-0.562429 -0.702839 0.435534
-0.628297 -0.597917 0.497733
-0.679542 -0.483266 0.551975
-0.713768 -0.364702 0.597937
-0.730891 -0.247546 0.636018
-0.732617 -0.135806 0.666955
-0.721686 -0.0320215 0.691479
-0.701258 0.0624991 0.710162
-0.674507 0.147347 0.723415
-0.64438 0.222743 0.731547
-0.613442 0.28933 0.734832
-0.583776 0.348031 0.733539
-0.556924 0.39992 0.727942
-0.533858 0.446119 0.718313
-0.515 0.487723 0.704912
-0.500217 0.525774 0.688001
-0.488754 0.561311 0.667869
-0.478876 0.595599 0.644934
-0.466896 0.6306 0.619961
-0.445803 0.669707 0.59393
-0.405365 0.722734 0.559763
-0.224858 0.899127 0.375512
-0.163392 0.914115 0.371076
-0.0299483 0.922674 0.384417
0.140689 0.910682 0.388414
0.327609 0.866629 0.376333
0.511884 0.787609 0.342996
0.67735 0.67735 0.287041
0.812548 0.543539 0.210548
0.911137 0.394882 0.117887
0.970882 0.239103 0.0147527
0.992318 0.0822788 -0.0923883
0.977911 -0.0709623 -0.196605
0.931804 -0.21702 -0.290937
0.859718 -0.353068 -0.36909
0.768611 -0.47701 -0.426262
0.665939 -0.587498 -0.459752
0.55874 -0.683891 -0.469151
0.452816 -0.766134 -0.456066
0.352236 -0.834593 -0.423538
0.259189 -0.889901 -0.375364
0.174117 -0.932829 -0.315457
0.0960258 -0.964152 -0.247366
0.0228794 -0.984484 -0.173977
-0.0479815 -0.994089 -0.0973897
-0.1194 -0.992665 -0.018963
-0.193908 -0.979152 0.0605097
-0.273112 -0.951667 0.1405
-0.356985 -0.907746 0.22036
-0.443252 -0.845078 0.29895
-0.527293 -0.762702 0.374496
-0.603009 -0.662187 0.444847
-0.664542 -0.547941 0.50808
-0.708011 -0.426241 0.563062
-0.732305 -0.303542 0.609583
-0.738749 -0.185098 0.648066
-0.730209 -0.074425 0.679158
-0.710229 0.026559 0.70347
-0.682441 0.117145 0.721493
-0.650227 0.19745 0.733634
-0.616524 0.268132 0.740272
-0.583716 0.330173 0.741796
-0.553573 0.384724 0.73861
-0.527248 0.432973 0.731125
-0.505297 0.476054 0.719755
-0.487723 0.515 0.704912
-0.473978 0.550746 0.68704
-0.4628 0.584258 0.666677
-0.451613 0.616839 0.644636
-0.435289 0.650636 0.622252
-0.405572 0.690303 0.59916
-0.287326 0.906239 0.310121
-0.184465 0.928786 0.321447
-0.0309532 0.942692 0.332226
0.151678 0.930741 0.332739
0.344226 0.884075 0.316101
0.528547 0.802013 0.278232
0.68996 0.68996 0.218886
0.818963 0.556307 0.140795
0.91102 0.409498 0.0485261
0.965146 0.256429 -0.0523249
0.982529 0.102226 -0.155521
0.965838 -0.0492558 -0.254422
0.919119 -0.19488 -0.342407
0.847804 -0.331945 -0.413571
0.758439 -0.458175 -0.463514
0.65802 -0.571834 -0.489914
0.553145 -0.671793 -0.492672
0.449248 -0.75753 -0.473629
0.350123 -0.829054 -0.435986
0.257756 -0.886793 -0.383614
0.172433 -0.931447 -0.320426
0.0930247 -0.963797 -0.249882
0.0173608 -0.984469 -0.1747
-0.0573351 -0.993657 -0.0967439
-0.133951 -0.990841 -0.0170906
-0.214872 -0.97456 0.0637456
-0.301196 -0.942405 0.145441
-0.391871 -0.891477 0.22739
-0.483113 -0.819489 0.308284
-0.568721 -0.726317 0.386032
-0.641632 -0.615116 0.458192
-0.696171 -0.492031 0.522734
-0.729667 -0.36448 0.578568
-0.742635 -0.239171 0.625532
-0.737867 -0.120944 0.664022
-0.719276 -0.0126271 0.69461
-0.691031 0.084575 0.71786
-0.657051 0.17058 0.734294
-0.620731 0.246019 0.744425
-0.58482 0.311941 0.748785
-0.551363 0.369591 0.747931
-0.521712 0.420254 0.742431
-0.496568 0.465134 0.732851
-0.476054 0.505297 0.719755
-0.459771 0.541649 0.703723
-0.446758 0.574996 0.68541
-0.435165 0.60623 0.66567
-0.421345 0.636698 0.64582
-0.398771 0.668867 0.627374
-0.358809 0.71262 0.602851
-0.380136 0.884882 0.269221
-0.321862 0.911307 0.256758
-0.194093 0.943424 0.268846