# vtk DataFile Version 2.0
tmp/0.000.00-10.000.000.001.0027.vtk
ASCII
DATASET UNSTRUCTURED_GRID
POINTS 5000 float
0.75 0.25 0
1.75 0.25 0
2.75 0.25 0
3.75 0.25 0
4.75 0.25 0
5.75 0.25 0
6.75 0.25 0
7.75 0.25 0
8.75 0.25 0
9.75 0.25 0
10.75 0.25 0
11.75 0.25 0
12.75 0.25 0
13.75 0.25 0
14.75 0.25 0
15.75 0.25 0
16.75 0.25 0
17.75 0.25 0
18.75 0.25 0
19.75 0.25 0
20.75 0.25 0
21.75 0.25 0
22.75 0.25 0
23.75 0.25 0
24.75 0.25 0
25.75 0.25 0
26.75 0.25 0
27.75 0.25 0
28.75 0.25 0
29.75 0.25 0
30.75 0.25 0
31.75 0.25 0
32.75 0.25 0
33.75 0.25 0
34.75 0.25 0
35.75 0.25 0
36.75 0.25 0
37.75 0.25 0
38.75 0.25 0
39.75 0.25 0
40.75 0.25 0
41.75 0.25 0
42.75 0.25 0
43.75 0.25 0
44.75 0.25 0
45.75 0.25 0
46.75 0.25 0
47.75 0.25 0
48.75 0.25 0
49.75 0.25 0
0.25 0.75 0
1.25 0.75 0
2.25 0.75 0
3.25 0.75 0
4.25 0.75 0
5.25 0.75 0
6.25 0.75 0
7.25 0.75 0
8.25 0.75 0
9.25 0.75 0
10.25 0.75 0
11.25 0.75 0
12.25 0.75 0
13.25 0.75 0
14.25 0.75 0
15.25 0.75 0
16.25 0.75 0
17.25 0.75 0
18.25 0.75 0
19.25 0.75 0
20.25 0.75 0
21.25 0.75 0
22.25 0.75 0
23.25 0.75 0
24.25 0.75 0
25.25 0.75 0
26.25 0.75 0
27.25 0.75 0
28.25 0.75 0
29.25 0.75 0
30.25 0.75 0
31.25 0.75 0
32.25 0.75 0
33.25 0.75 0
34.25 0.75 0
35.25 0.75 0
36.25 0.75 0
37.25 0.75 0
38.25 0.75 0
39.25 0.75 0
40.25 0.75 0
41.25 0.75 0
42.25 0.75 0
43.25 0.75 0
44.25 0.75 0
45.25 0.75 0
46.25 0.75 0
47.25 0.75 0
48.25 0.75 0
49.25 0.75 0
0.75 1.25 0
1.75 1.25 0
2.75 1.25 0
3.75 1.25 0
4.75 1.25 0
5.75 1.25 0
6.75 1.25 0
7.75 1.25 0
8.75 1.25 0
9.75 1.25 0
10.75 1.25 0
11.75 1.25 0
12.75 1.25 0
13.75 1.25 0
14.75 1.25 0
15.75 1.25 0
16.75 1.25 0
17.75 1.25 0
18.75 1.25 0
19.75 1.25 0
20.75 1.25 0
21.75 1.25 0
22.75 1.25 0
23.75 1.25 0
24.75 1.25 0
25.75 1.25 0
26.75 1.25 0
27.75 1.25 0
28.75 1.25 0
29.75 1.25 0
30.75 1.25 0
31.75 1.25 0
32.75 1.25 0
33.75 1.25 0
34.75 1.25 0
35.75 1.25 0
36.75 1.25 0
37.75 1.25 0
38.75 1.25 0
39.75 1.25 0
40.75 1.25 0
41.75 1.25 0
42.75 1.25 0
43.75 1.25 0
44.75 1.25 0
45.75 1.25 0
46.75 1.25 0
47.75 1.25 0
48.75 1.25 0
49.75 1.25 0
0.25 1.75 0
1.25 1.75 0
2.25 1.75 0
3.25 1.75 0
4.25 1.75 0
5.25 1.75 0
6.25 1.75 0
7.25 1.75 0
8.25 1.75 0
9.25 1.75 0
10.25 1.75 0
11.25 1.75 0
12.25 1.75 0
13.25 1.75 0
14.25 1.75 0
15.25 1.75 0
16.25 1.75 0
17.25 1.75 0
18.25 1.75 0
19.25 1.75 0
20.25 1.75 0
21.25 1.75 0
22.25 1.75 0
23.25 1.75 0
24.25 1.75 0
25.25 1.75 0
26.25 1.75 0
27.25 1.75 0
28.25 1.75 0
29.25 1.75 0
30.25 1.75 0
31.25 1.75 0
32.25 1.75 0
33.25 1.75 0
34.25 1.75 0
35.25 1.75 0
36.25 1.75 0
37.25 1.75 0
38.25 1.75 0
39.25 1.75 0
40.25 1.75 0
41.25 1.75 0
42.25 1.75 0
43.25 1.75 0
44.25 1.75 0
45.25 1.75 0
46.25 1.75 0
47.25 1.75 0
48.25 1.75 0
49.25 1.75 0
0.75 2.25 0
1.75 2.25 0
2.75 2.25 0
3.75 2.25 0
4.75 2.25 0
5.75 2.25 0
6.75 2.25 0
7.75 2.25 0
8.75 2.25 0
9.75 2.25 0
10.75 2.25 0
11.75 2.25 0
12.75 2.25 0
13.75 2.25 0
14.75 2.25 0
15.75 2.25 0
16.75 2.25 0
17.75 2.25 0
18.75 2.25 0
19.75 2.25 0
20.75 2.25 0
21.75 2.25 0
22.75 2.25 0
23.75 2.25 0
24.75 2.25 0
25.75 2.25 0
26.75 2.25 0
27.75 2.25 0
28.75 2.25 0
29.75 2.25 0
30.75 2.25 0
31.75 2.25 0
32.75 2.25 0
33.75 2.25 0
34.75 2.25 0
35.75 2.25 0
36.75 2.25 0
37.75 2.25 0
38.75 2.25 0
39.75 2.25 0
40.75 2.25 0
41.75 2.25 0
42.75 2.25 0
43.75 2.25 0
44.75 2.25 0
45.75 2.25 0
46.75 2.25 0
47.75 2.25 0
48.75 2.25 0
49.75 2.25 0
0.25 2.75 0
1.25 2.75 0
2.25 2.75 0
3.25 2.75 0
4.25 2.75 0
5.25 2.75 0
6.25 2.75 0
7.25 2.75 0
8.25 2.75 0
9.25 2.75 0
10.25 2.75 0
11.25 2.75 0
12.25 2.75 0
13.25 2.75 0
14.25 2.75 0
15.25 2.75 0
16.25 2.75 0
17.25 2.75 0
18.25 2.75 0
19.25 2.75 0
20.25 2.75 0
21.25 2.75 0
22.25 2.75 0
23.25 2.75 0
24.25 2.75 0
25.25 2.75 0
26.25 2.75 0
27.25 2.75 0
28.25 2.75 0
29.25 2.75 0
30.25 2.75 0
31.25 2.75 0
32.25 2.75 0
33.25 2.75 0
34.25 2.75 0
35.25 2.75 0
36.25 2.75 0
37.25 2.75 0
38.25 2.75 0
39.25 2.75 0
40.25 2.75 0
41.25 2.75 0
42.25 2.75 0
43.25 2.75 0
44.25 2.75 0
45.25 2.75 0
46.25 2.75 0
47.25 2.75 0
48.25 2.75 0
49.25 2.75 0
0.75 3.25 0
1.75 3.25 0
2.75 3.25 0
3.75 3.25 0
4.75 3.25 0
5.75 3.25 0
6.75 3.25 0
7.75 3.25 0
8.75 3.25 0
9.75 3.25 0
10.75 3.25 0
11.75 3.25 0
12.75 3.25 0
13.75 3.25 0
14.75 3.25 0
15.75 3.25 0
16.75 3.25 0
17.75 3.25 0
18.75 3.25 0
19.75 3.25 0
20.75 3.25 0
21.75 3.25 0
22.75 3.25 0
23.75 3.25 0
24.75 3.25 0
25.75 3.25 0
26.75 3.25 0
27.75 3.25 0
28.75 3.25 0
29.75 3.25 0
30.75 3.25 0
31.75 3.25 0
32.75 3.25 0
33.75 3.25 0
34.75 3.25 0
35.75 3.25 0
36.75 3.25 0
37.75 3.25 0
38.75 3.25 0
39.75 3.25 0
40.75 3.25 0
41.75 3.25 0
42.75 3.25 0
43.75 3.25 0
44.75 3.25 0
45.75 3.25 0
46.75 3.25 0
47.75 3.25 0
48.75 3.25 0
49.75 3.25 0
0.25 3.75 0
1.25 3.75 0
2.25 3.75 0
3.25 3.75 0
4.25 3.75 0
5.25 3.75 0
6.25 3.75 0
7.25 3.75 0
8.25 3.75 0
9.25 3.75 0
10.25 3.75 0
11.25 3.75 0
12.25 3.75 0
13.25 3.75 0
14.25 3.75 0
15.25 3.75 0
16.25 3.75 0
17.25 3.75 0
18.25 3.75 0
19.25 3.75 0
20.25 3.75 0
21.25 3.75 0
22.25 3.75 0
23.25 3.75 0
24.25 3.75 0
25.25 3.75 0
26.25 3.75 0
27.25 3.75 0
28.25 3.75 0
29.25 3.75 0
30.25 3.75 0
31.25 3.75 0
32.25 3.75 0
33.25 3.75 0
34.25 3.75 0
35.25 3.75 0
36.25 3.75 0
37.25 3.75 0
38.25 3.75 0
39.25 3.75 0
40.25 3.75 0
41.25 3.75 0
42.25 3.75 0
43.25 3.75 0
44.25 3.75 0
45.25 3.75 0
46.25 3.75 0
47.25 3.75 0
48.25 3.75 0
49.25 3.75 0
0.75 4.25 0
1.75 4.25 0
2.75 4.25 0
3.75 4.25 0
4.75 4.25 0
5.75 4.25 0
6.75 4.25 0
7.75 4.25 0
8.75 4.25 0
9.75 4.25 0
10.75 4.25 0
11.75 4.25 0
12.75 4.25 0
13.75 4.25 0
14.75 4.25 0
15.75 4.25 0
16.75 4.25 0
17.75 4.25 0
18.75 4.25 0
19.75 4.25 0
20.75 4.25 0
21.75 4.25 0
22.75 4.25 0
23.75 4.25 0
24.75 4.25 0
25.75 4.25 0
26.75 4.25 0
27.75 4.25 0
28.75 4.25 0
29.75 4.25 0
30.75 4.25 0
31.75 4.25 0
32.75 4.25 0
33.75 4.25 0
34.75 4.25 0
35.75 4.25 0
36.75 4.25 0
37.75 4.25 0
38.75 4.25 0
39.75 4.25 0
40.75 4.25 0
41.75 4.25 0
42.75 4.25 0
43.75 4.25 0
44.75 4.25 0
45.75 4.25 0
46.75 4.25 0
47.75 4.25 0
48.75 4.25 0
49.75 4.25 0
0.25 4.75 0
1.25 4.75 0
2.25 4.75 0
3.25 4.75 0
4.25 4.75 0
5.25 4.75 0
6.25 4.75 0
7.25 4.75 0
8.25 4.75 0
9.25 4.75 0
10.25 4.75 0
11.25 4.75 0
12.25 4.75 0
13.25 4.75 0
14.25 4.75 0
15.25 4.75 0
16.25 4.75 0
17.25 4.75 0
18.25 4.75 0
19.25 4.75 0
20.25 4.75 0
21.25 4.75 0
22.25 4.75 0
23.25 4.75 0
24.25 4.75 0
25.25 4.75 0
26.25 4.75 0
27.25 4.75 0
28.25 4.75 0
29.25 4.75 0
30.25 4.75 0
31.25 4.75 0
32.25 4.75 0
33.25 4.75 0
34.25 4.75 0
35.25 4.75 0
36.25 4.75 0
37.25 4.75 0
38.25 4.75 0
39.25 4.75 0
40.25 4.75 0
41.25 4.75 0
42.25 4.75 0
43.25 4.75 0
44.25 4.75 0
45.25 4.75 0
46.25 4.75 0
47.25 4.75 0
48.25 4.75 0
49.25 4.75 0
0.75 5.25 0
1.75 5.25 0
2.75 5.25 0
3.75 5.25 0
4.75 5.25 0
5.75 5.25 0
6.75 5.25 0
7.75 5.25 0
8.75 5.25 0
9.75 5.25 0
10.75 5.25 0
11.75 5.25 0
12.75 5.25 0
13.75 5.25 0
14.75 5.25 0
15.75 5.25 0
16.75 5.25 0
17.75 5.25 0
18.75 5.25 0
19.75 5.25 0
20.75 5.25 0
21.75 5.25 0
22.75 5.25 0
23.75 5.25 0
24.75 5.25 0
25.75 5.25 0
26.75 5.25 0
27.75 5.25 0
28.75 5.25 0
29.75 5.25 0
30.75 5.25 0
31.75 5.25 0
32.75 5.25 0
33.75 5.25 0
34.75 5.25 0
35.75 5.25 0
36.75 5.25 0
37.75 5.25 0
38.75 5.25 0
39.75 5.25 0
40.75 5.25 0
41.75 5.25 0
42.75 5.25 0
43.75 5.25 0
44.75 5.25 0
45.75 5.25 0
46.75 5.25 0
47.75 5.25 0
48.75 5.25 0
49.75 5.25 0
0.25 5.75 0
1.25 5.75 0
2.25 5.75 0
3.25 5.75 0
4.25 5.75 0
5.25 5.75 0
6.25 5.75 0
7.25 5.75 0
8.25 5.75 0
9.25 5.75 0
10.25 5.75 0
11.25 5.75 0
12.25 5.75 0
13.25 5.75 0
14.25 5.75 0
15.25 5.75 0
16.25 5.75 0
17.25 5.75 0
18.25 5.75 0
19.25 5.75 0
20.25 5.75 0
21.25 5.75 0
22.25 5.75 0
23.25 5.75 0
24.25 5.75 0
25.25 5.75 0
26.25 5.75 0
27.25 5.75 0
28.25 5.75 0
29.25 5.75 0
30.25 5.75 0
31.25 5.75 0
32.25 5.75 0
33.25 5.75 0
34.25 5.75 0
35.25 5.75 0
36.25 5.75 0
37.25 5.75 0
38.25 5.75 0
39.25 5.75 0
40.25 5.75 0
41.25 5.75 0
42.25 5.75 0
43.25 5.75 0
44.25 5.75 0
45.25 5.75 0
46.25 5.75 0
47.25 5.75 0
48.25 5.75 0
49.25 5.75 0
0.75 6.25 0
1.75 6.25 0
2.75 6.25 0
3.75 6.25 0
4.75 6.25 0
5.75 6.25 0
6.75 6.25 0
7.75 6.25 0
8.75 6.25 0
9.75 6.25 0
10.75 6.25 0
11.75 6.25 0
12.75 6.25 0
13.75 6.25 0
14.75 6.25 0
15.75 6.25 0
16.75 6.25 0
17.75 6.25 0
18.75 6.25 0
19.75 6.25 0
20.75 6.25 0
21.75 6.25 0
22.75 6.25 0
23.75 6.25 0
24.75 6.25 0
25.75 6.25 0
26.75 6.25 0
27.75 6.25 0
28.75 6.25 0
29.75 6.25 0
30.75 6.25 0
31.75 6.25 0
32.75 6.25 0
33.75 6.25 0
34.75 6.25 0
35.75 6.25 0
36.75 6.25 0
37.75 6.25 0
38.75 6.25 0
39.75 6.25 0
40.75 6.25 0
41.75 6.25 0
42.75 6.25 0
43.75 6.25 0
44.75 6.25 0
45.75 6.25 0
46.75 6.25 0
47.75 6.25 0
48.75 6.25 0
49.75 6.25 0
0.25 6.75 0
1.25 6.75 0
2.25 6.75 0
3.25 6.75 0
4.25 6.75 0
5.25 6.75 0
6.25 6.75 0
7.25 6.75 0
8.25 6.75 0
9.25 6.75 0
10.25 6.75 0
11.25 6.75 0
12.25 6.75 0
13.25 6.75 0
14.25 6.75 0
15.25 6.75 0
16.25 6.75 0
17.25 6.75 0
18.25 6.75 0
19.25 6.75 0
20.25 6.75 0
21.25 6.75 0
22.25 6.75 0
23.25 6.75 0
24.25 6.75 0
25.25 6.75 0
26.25 6.75 0
27.25 6.75 0
28.25 6.75 0
29.25 6.75 0
30.25 6.75 0
31.25 6.75 0
32.25 6.75 0
33.25 6.75 0
34.25 6.75 0
35.25 6.75 0
36.25 6.75 0
37.25 6.75 0
38.25 6.75 0
39.25 6.75 0
40.25 6.75 0
41.25 6.75 0
42.25 6.75 0
43.25 6.75 0
44.25 6.75 0
45.25 6.75 0
46.25 6.75 0
47.25 6.75 0
48.25 6.75 0
49.25 6.75 0
0.75 7.25 0
1.75 7.25 0
2.75 7.25 0
3.75 7.25 0
4.75 7.25 0
5.75 7.25 0
6.75 7.25 0
7.75 7.25 0
8.75 7.25 0
9.75 7.25 0
10.75 7.25 0
11.75 7.25 0
12.75 7.25 0
13.75 7.25 0
14.75 7.25 0
15.75 7.25 0
16.75 7.25 0
17.75 7.25 0
18.75 7.25 0
19.75 7.25 0
20.75 7.25 0
21.75 7.25 0
22.75 7.25 0
23.75 7.25 0
24.75 7.25 0
25.75 7.25 0
26.75 7.25 0
27.75 7.25 0
28.75 7.25 0
29.75 7.25 0
30.75 7.25 0
31.75 7.25 0
32.75 7.25 0
33.75 7.25 0
34.75 7.25 0
35.75 7.25 0
36.75 7.25 0
37.75 7.25 0
38.75 7.25 0
39.75 7.25 0
40.75 7.25 0
41.75 7.25 0
42.75 7.25 0
43.75 7.25 0
44.75 7.25 0
45.75 7.25 0
46.75 7.25 0
47.75 7.25 0
48.75 7.25 0
49.75 7.25 0
0.25 7.75 0
1.25 7.75 0
2.25 7.75 0
3.25 7.75 0
4.25 7.75 0
5.25 7.75 0
6.25 7.75 0
7.25 7.75 0
8.25 7.75 0
9.25 7.75 0
10.25 7.75 0
11.25 7.75 0
12.25 7.75 0
13.25 7.75 0
14.25 7.75 0
15.25 7.75 0
16.25 7.75 0
17.25 7.75 0
18.25 7.75 0
19.25 7.75 0
20.25 7.75 0
21.25 7.75 0
[...]
POINT_DATA 5000
VECTORS velocity float
-0.332123 -0.388594 0.85947
-0.194343 -0.447025 0.873155
-0.041813 -0.550841 0.833562
0.0963491 -0.673417 0.732957
0.202849 -0.788648 0.58042
0.271961 -0.880128 0.389116
0.301474 -0.937783 0.17227
0.289338 -0.955659 -0.0547664
0.235028 -0.932828 -0.273118
0.142355 -0.874949 -0.462816
0.020397 -0.793488 -0.608245
-0.118639 -0.701864 -0.702362
-0.262743 -0.611148 -0.746636
-0.402269 -0.528005 -0.747924
-0.530438 -0.455074 -0.715222
-0.642992 -0.392407 -0.657707
-0.73773 -0.338838 -0.583903
-0.814156 -0.292875 -0.501371
-0.87318 -0.253123 -0.416515
-0.916767 -0.218402 -0.334423
-0.947519 -0.18772 -0.258783
-0.968242 -0.160202 -0.191946
-0.98158 -0.135056 -0.135134
-0.989788 -0.11156 -0.0887394
-0.994634 -0.0890705 -0.0526316
-0.997401 -0.0670296 -0.0264087
-0.998942 -0.0449713 -0.00957753
-0.999745 -0.0225326 -0.00165833
-0.999997 0.000529309 -0.00222001
-0.999645 0.024315 -0.0108502
-0.998443 0.048764 -0.0270686
-0.996019 0.0736546 -0.0502081
-0.991959 0.0986343 -0.0793061
-0.985912 0.123275 -0.113054
-0.977701 0.147135 -0.149842
-0.9674 0.169813 -0.187884
-0.95536 0.190987 -0.225415
-0.942156 0.210446 -0.260873
-0.928476 0.228156 -0.293049
-0.914959 0.244347 -0.321161
-0.902031 0.259623 -0.344872
-0.88974 0.275073 -0.364277
-0.87762 0.292384 -0.379862
-0.864533 0.313928 -0.392468
-0.848464 0.342743 -0.403281
-0.82625 0.382135 -0.413865
-0.793594 0.434421 -0.426014
-0.746796 0.498628 -0.440075
-0.688003 0.568659 -0.450865
-0.635139 0.635139 -0.439541
-0.388594 -0.332123 0.85947
-0.251783 -0.345637 0.903958
-0.0755312 -0.424614 0.902218
0.0993557 -0.542293 0.834294
0.240674 -0.665057 0.706948
0.338234 -0.771996 0.538164
0.392512 -0.853922 0.341688
0.403909 -0.905698 0.128722
0.371474 -0.924323 -0.0873764
0.296018 -0.910206 -0.289653
0.183247 -0.868489 -0.460595
0.0439018 -0.808104 -0.587401
-0.109122 -0.738618 -0.665234
-0.264061 -0.667241 -0.696464
-0.411886 -0.597824 -0.687718
-0.546304 -0.531606 -0.647261
-0.663221 -0.46856 -0.5836
-0.760385 -0.408465 -0.504946
-0.837264 -0.351427 -0.418913
-0.894946 -0.297897 -0.332157
-0.935838 -0.248416 -0.249994
-0.963134 -0.20332 -0.176165
-0.980219 -0.162581 -0.112862
-0.990177 -0.125807 -0.061014
-0.995512 -0.0923453 -0.0206767
-0.998075 -0.0614174 0.00858258
-0.999105 -0.0322293 0.027398
-0.999328 -0.00405804 0.0364261
-0.999061 0.0236829 0.0362682
-0.9983 0.0513911 0.0274811
-0.996799 0.0792391 0.010659
-0.99415 0.107167 -0.0134438
-0.989888 0.134918 -0.0437956
-0.983604 0.162102 -0.07903
-0.975063 0.18828 -0.117483
-0.964298 0.213025 -0.157322
-0.951638 0.235967 -0.196736
-0.937671 0.256821 -0.234129
-0.923129 0.275441 -0.268264
-0.908727 0.291894 -0.29835
-0.894995 0.306545 -0.324058
-0.882112 0.320156 -0.345514
-0.869766 0.33398 -0.363269
-0.857031 0.349886 -0.378256
-0.842196 0.370447 -0.391759
-0.822507 0.398895 -0.40542
-0.793849 0.438667 -0.421159
-0.75119 0.492108 -0.439935
-0.692418 0.557839 -0.457573
-0.626501 0.626501 -0.463674
-0.345637 -0.251783 0.903958
-0.16595 -0.28921 0.942772
0.0400156 -0.387786 0.92088
0.223547 -0.515109 0.82746
0.357598 -0.638196 0.681784
0.441281 -0.742564 0.503855
0.478923 -0.822873 0.305798
0.47211 -0.876077 0.0979876
0.421239 -0.900682 -0.106444
0.329286 -0.898017 -0.291782
0.20381 -0.872761 -0.443565
0.0557382 -0.831481 -0.55275
-0.103542 -0.780139 -0.616978
-0.26422 -0.722464 -0.638932
-0.418375 -0.660009 -0.62398
-0.559478 -0.593312 -0.578762
-0.682222 -0.523148 -0.510773
-0.783021 -0.451176 -0.428156
-0.860666 -0.379804 -0.339121
-0.916477 -0.311543 -0.251018
-0.953717 -0.248353 -0.169545
-0.976591 -0.191281 -0.0984004
-0.9893 -0.140459 -0.0394538
-0.995422 -0.0953311 0.00679581
-0.997661 -0.0549358 0.0406882
-0.997851 -0.0181501 0.0629605
-0.997094 0.01613 0.0744544
-0.995912 0.0488639 0.0759689
-0.994394 0.0807777 0.0682354
-0.992313 0.112306 0.0519876
-0.989241 0.143575 0.0280876
-0.984666 0.174435 -0.00234749
-0.978124 0.204543 -0.0378796
-0.969331 0.233454 -0.0767827
-0.958282 0.260703 -0.117174
-0.94529 0.285854 -0.157208
-0.93095 0.308547 -0.195271
-0.916023 0.328542 -0.230133
-0.901272 0.345801 -0.261018
-0.887283 0.360557 -0.287623
-0.874306 0.373394 -0.310106
-0.862122 0.385318 -0.329052
-0.849929 0.39787 -0.345428
-0.836212 0.41324 -0.36053
-0.818537 0.434331 -0.375971
-0.793197 0.464602 -0.393678
-0.755023 0.507395 -0.415319
-0.699318 0.564064 -0.439075
-0.628818 0.628818 -0.457359
-0.568659 0.688003 -0.450865
-0.447025 -0.194343 0.873155
-0.28921 -0.16595 0.942772
-0.0721897 -0.223294 0.972074
0.153611 -0.338956 0.928177
0.335245 -0.473645 0.814415
0.457497 -0.599087 0.657108
0.526398 -0.705427 0.474635
0.547842 -0.789137 0.277726
0.52422 -0.848097 0.0769761
0.457805 -0.88167 -0.114334
0.353887 -0.891703 -0.282188
0.22099 -0.882221 -0.415752
0.0686908 -0.857616 -0.509683
-0.0944322 -0.820738 -0.563446
-0.261 -0.772303 -0.579161
-0.423663 -0.711841 -0.560171
-0.574268 -0.639497 -0.511136
-0.704731 -0.557507 -0.438795
-0.809286 -0.47031 -0.351946
-0.886284 -0.383245 -0.260048
-0.938139 -0.300886 -0.171353
-0.96978 -0.226082 -0.0917299
-0.986831 -0.159889 -0.0245092
-0.99436 -0.102014 0.029015
-0.996302 -0.0513524 0.0688829
-0.995376 -0.0064376 0.0958372
-0.993244 0.0342569 0.110877
-0.990744 0.0721161 0.115004
-0.988114 0.108251 0.109147
-0.985169 0.143415 0.0941997
-0.98146 0.17797 0.0711518
-0.976418 0.211919 0.0412204
-0.969507 0.244992 0.00592919
-0.960376 0.276757 -0.032919
-0.948971 0.30671 -0.0733744
-0.935587 0.334345 -0.113539
-0.920835 0.359204 -0.151771
-0.905522 0.380947 -0.186839
-0.890471 0.399428 -0.21799
-0.876332 0.414776 -0.244956
-0.863423 0.427448 -0.267934
-0.851599 0.438285 -0.287552
-0.84015 0.448594 -0.304812
-0.827702 0.460276 -0.321021
-0.81206 0.47591 -0.337739
-0.789923 0.498712 -0.356801
-0.756494 0.532143 -0.380185
-0.705973 0.578665 -0.408349
-0.636057 0.636057 -0.436877
-0.557839 0.692418 -0.457573
-0.424614 -0.0755312 0.902218
-0.223294 -0.0721897 0.972074
0.0255664 -0.148915 0.988519
0.259505 -0.27904 0.924551
0.432897 -0.420893 0.797151
0.542464 -0.551547 0.633663
0.597582 -0.663706 0.449877
0.604402 -0.754375 0.256158
0.56636 -0.821669 0.0640029
0.487994 -0.86545 -0.113392
0.376466 -0.887908 -0.264372
0.240002 -0.892502 -0.381889
0.085561 -0.881863 -0.463678
-0.0817103 -0.856246 -0.510065
-0.256654 -0.813568 -0.521763
-0.431353 -0.751239 -0.499574
-0.594203 -0.66917 -0.446245
-0.732848 -0.571925 -0.36856
-0.839293 -0.46783 -0.276989
-0.912671 -0.365581 -0.182709
-0.957824 -0.271328 -0.0946237
-0.98201 -0.187946 -0.0182607
-0.992309 -0.115775 0.0438056
-0.994402 -0.0536735 0.0910152
-0.992288 0.000177151 0.12395
-0.988469 0.0477702 0.143691
-0.984272 0.0909758 0.151432
-0.980179 0.131358 0.148308
-0.976088 0.170057 0.135398
-0.971537 0.20774 0.113839
-0.96589 0.244619 0.0849623
-0.958517 0.280547 0.0503895
-0.948972 0.315131 0.0120106
-0.937129 0.347848 -0.0281431
-0.923248 0.37812 -0.0681032
-0.907958 0.405387 -0.106179
-0.892123 0.429187 -0.141121
-0.876654 0.449255 -0.172185
-0.862293 0.465613 -0.199136
-0.849444 0.478607 -0.222216
-0.838046 0.488943 -0.242104
-0.827476 0.497754 -0.259854
-0.81647 0.506715 -0.276797
-0.803013 0.518137 -0.294455
-0.784135 0.534974 -0.314539
-0.755545 0.560562 -0.339003
-0.711426 0.597752 -0.369548
-0.646514 0.646514 -0.405019
-0.564064 0.699318 -0.439075
-0.498628 0.746796 -0.440075
-0.550841 -0.041813 0.833562
-0.387786 0.0400156 0.92088
-0.148915 0.0255664 0.988519
0.120969 -0.0697417 0.990203
0.353005 -0.212144 0.911253
0.51583 -0.361687 0.776596
0.614012 -0.49985 0.610852
0.657342 -0.620369 0.427836
0.651754 -0.719912 0.238629
0.602148 -0.796424 0.0559134
0.51537 -0.850176 -0.107679
0.399623 -0.883807 -0.243283
0.261706 -0.900498 -0.347295
0.105298 -0.901574 -0.419614
-0.0679056 -0.88503 -0.460554
-0.254363 -0.845843 -0.468881
-0.444186 -0.778898 -0.442738
-0.620419 -0.684092 -0.383535
-0.765519 -0.569559 -0.299305
-0.870338 -0.44863 -0.203084
-0.936686 -0.333219 -0.107631
-0.972933 -0.230058 -0.0217799
-0.988735 -0.141122 0.0498739
-0.99223 -0.0655568 0.105742
-0.989285 -0.00124265 0.145991
-0.983659 0.0543148 0.171651
-0.977449 0.103532 0.184053
-0.971541 0.148498 0.184544
-0.966005 0.190826 0.174411
-0.960397 0.231567 0.154963
-0.954012 0.271222 0.12767
-0.946109 0.309827 0.0942616
-0.936118 0.347082 0.056724
-0.923807 0.382474 0.0171759
-0.909376 0.415376 -0.0223322
-0.893449 0.445133 -0.0600433
-0.876954 0.471158 -0.0946657
-0.860902 0.493063 -0.125446
-0.846156 0.510751 -0.152164
-0.833239 0.524457 -0.175094
-0.822199 0.534765 -0.194973
-0.812523 0.542654 -0.212915
-0.803052 0.54961 -0.230298
-0.791912 0.557723 -0.248637
-0.776388 0.569712 -0.269535
-0.752655 0.588748 -0.294766
-0.715383 0.61784 -0.326344
-0.658206 0.658206 -0.365418
-0.578665 0.705973 -0.408349
-0.492108 0.75119 -0.439935
-0.542293 0.0993557 0.834294
-0.338956 0.153611 0.928177
-0.0697417 0.120969 0.990203
0.207992 0.00873556 0.978091
0.431955 -0.143707 0.890372
0.584615 -0.300981 0.753416
0.673624 -0.447802 0.587965
0.707428 -0.577842 0.406994
0.691759 -0.686809 0.223075
0.63329 -0.772295 0.0500348
0.540853 -0.835087 -0.100542
0.422805 -0.878455 -0.222603
0.283848 -0.905556 -0.315275
0.124321 -0.916718 -0.379701
-0.0571412 -0.907759 -0.415581
-0.257818 -0.870346 -0.419557
-0.464342 -0.79641 -0.38745
-0.652748 -0.686475 -0.320426
-0.800458 -0.553874 -0.229108
-0.899359 -0.41763 -0.129378
-0.955806 -0.291943 -0.0347055
-0.98201 -0.182867 0.0470728
-0.989473 -0.0908088 0.112682
-0.986777 -0.013589 0.161513
-0.97957 0.0517856 0.194323
-0.971145 0.10833 0.212468
-0.963074 0.158733 0.21747
-0.955749 0.205159 0.21084
-0.948819 0.249139 0.194092
-0.941532 0.291553 0.168865
-0.933025 0.332701 0.137018
-0.922582 0.372442 0.100643
-0.909831 0.410328 0.0619514
-0.894875 0.445719 0.0230786
-0.878307 0.477888 -0.0141407
-0.861095 0.506139 -0.0483562
-0.844352 0.529965 -0.0787809
-0.829074 0.549156 -0.105182
-0.815928 0.563841 -0.127851
-0.805108 0.574479 -0.147564
-0.796235 0.581909 -0.165504
-0.788278 0.587441 -0.183112
-0.779489 0.592976 -0.201933
-0.767341 0.601027 -0.223502
-0.748376 0.614603 -0.249393
-0.717854 0.636768 -0.281445
-0.669519 0.669519 -0.321697
-0.597752 0.711426 -0.369548
-0.507395 0.755023 -0.415319
-0.434421 0.793594 -0.426014
-0.673417 0.0963491 0.732957
-0.515109 0.223547 0.82746
-0.27904 0.259505 0.924551
0.00873556 0.207992 0.978091
0.283598 0.081981 0.955433
0.497127 -0.0779568 0.864169
0.64126 -0.242234 0.728085
0.72329 -0.397768 0.564476
0.749567 -0.537401 0.386459
0.725847 -0.655509 0.208457
0.660651 -0.749336 0.0451179
0.564253 -0.820306 -0.0933589
0.444471 -0.87239 -0.203423
0.303695 -0.908796 -0.286109
0.13923 -0.928938 -0.343059
-0.0528044 -0.926323 -0.37301
-0.269583 -0.888814 -0.370587
-0.492616 -0.80523 -0.33005
-0.689765 -0.678079 -0.253837
-0.834943 -0.527701 -0.156211
-0.923905 -0.378612 -0.0552441
-0.968672 -0.245685 0.0362488
-0.984727 -0.133165 0.112161
-0.984545 -0.0396269 0.170592
-0.97658 0.0382919 0.211722
-0.96597 0.104242 0.23672
-0.955405 0.16157 0.247175
-0.945873 0.213071 0.244796
-0.937255 0.260846 0.231328
-0.928811 0.306249 0.208616
-0.91957 0.349945 0.178685
-0.908649 0.392037 0.14375
-0.895507 0.432211 0.106122
-0.880112 0.469867 0.068024
-0.86299 0.504247 0.0313723
-0.845118 0.534574 -0.00241492
-0.827691 0.560242 -0.032498
-0.81183 0.580945 -0.0586078
-0.798353 0.596714 -0.0810205
-0.787623 0.6079 -0.100532
-0.779432 0.615201 -0.118381
-0.772896 0.619768 -0.136086
-0.766399 0.623322 -0.155248
-0.757563 0.628197 -0.177389
-0.743191 0.637244 -0.203928
-0.719054 0.653516 -0.236384
-0.679492 0.679492 -0.276733
-0.61784 0.715383 -0.326344
-0.532143 0.756494 -0.380185
-0.438667 0.793849 -0.421159
-0.665057 0.240674 0.706948
-0.473645 0.335245 0.814415
-0.212144 0.353005 0.911253
0.081981 0.283598 0.955433
0.347761 0.147782 0.925863
0.550946 -0.0171011 0.834366
0.688354 -0.18717 0.700811
0.765114 -0.350728 0.539991
0.78539 -0.499357 0.365794
0.755206 -0.625988 0.194431
0.684782 -0.727599 0.0409035
0.585242 -0.806271 -0.0861367
0.463432 -0.866572 -0.185158
0.319501 -0.911685 -0.258361
0.148114 -0.940001 -0.307343
-0.0565498 -0.942386 -0.329712
-0.290448 -0.902363 -0.318404
-0.528145 -0.805984 -0.267305
-0.728991 -0.659934 -0.18182
-0.866294 -0.493067 -0.0801209
-0.942356 -0.334068 0.0190926
-0.974844 -0.196599 0.105014
-0.981373 -0.0823899 0.17355
-0.974533 0.0117158 0.223936
-0.962247 0.0899742 0.256875
-0.948977 0.156448 0.273801
-0.936739 0.214621 0.276511
-0.925913 0.267239 0.266963
-0.9159 0.316225 0.247241
-0.905662 0.362714 0.219578
-0.894147 0.407155 0.186349
-0.88062 0.44946 0.149981
-0.864879 0.489144 0.112792
-0.84734 0.525472 0.076779
-0.828955 0.557626 0.0434308
-0.810968 0.584931 0.0136495
-0.7946 0.607009 -0.0122389
-0.780808 0.62382 -0.034467
-0.770125 0.635619 -0.0538207
-0.762532 0.642979 -0.0715745
-0.757328 0.646897 -0.0893213
-0.753037 0.64893 -0.10874
-0.747407 0.651246 -0.131385
-0.737423 0.656549 -0.158588
-0.719234 0.667833 -0.191578
-0.687832 0.687832 -0.231894
-0.636768 0.717854 -0.281445
-0.560562 0.755545 -0.339003
-0.464602 0.793197 -0.393678
-0.382135 0.82625 -0.413865
-0.788648 0.202849 0.58042
-0.638196 0.357598 0.681784
-0.420893 0.432897 0.797151
-0.143707 0.431955 0.890372
0.147782 0.347761 0.925863
0.402153 0.205931 0.892113
0.596156 0.0382769 0.801956
0.728296 -0.136249 0.671582
0.800917 -0.306781 0.514215
0.816259 -0.463518 0.344779
0.780785 -0.598034 0.180918
0.706105 -0.707113 0.037495
0.603671 -0.79337 -0.0783883
0.479137 -0.861765 -0.166698
0.330586 -0.91527 -0.230203
0.150388 -0.951018 -0.270089
-0.0686329 -0.956721 -0.282798
-0.319803 -0.911064 -0.260168
-0.568842 -0.798428 -0.197309
-0.767484 -0.632564 -0.104075
-0.892318 -0.451404 -0.00165222
-0.953894 -0.28547 0.092694
-0.974454 -0.145563 0.171029
-0.97245 -0.0307145 0.231079
-0.959958 0.063616 0.272826
-0.944142 0.142244 0.29726
-0.928712 0.209398 0.306018
-0.914989 0.268512 0.301158
-0.902772 0.322153 0.284991
-0.891066 0.372023 0.260001
-0.878678 0.419036 0.228768
-0.86466 0.463438 0.193874
-0.848606 0.50496 0.157745
-0.830779 0.542963 0.122464
-0.812066 0.576647 0.0895922
-0.793723 0.605304 0.0600954
-0.777035 0.628518 0.0343677
-0.763066 0.646205 0.0122431
-0.752504 0.658551 -0.00702506
-0.745525 0.666019 -0.0247224
-0.741624 0.669468 -0.0425039
-0.739486 0.670299 -0.0621347
-0.736971 0.670528 -0.0852352
-0.731193 0.672727 -0.113117
-0.718554 0.6798 -0.146805
-0.694584 0.694584 -0.187364
-0.653516 0.719054 -0.236384
-0.588748 0.752655 -0.294766
-0.498712 0.789923 -0.356801
-0.398895 0.822507 -0.40542
-0.771996 0.338234 0.538164
-0.599087 0.457497 0.657108
-0.361687 0.51583 0.776596
-0.0779568 0.497127 0.864169
0.205931 0.402153 0.892113
0.448911 0.257316 0.855726
0.635109 0.0885331 0.767332
0.762955 -0.0892142 0.640265
0.832088 -0.265589 0.486922
0.843213 -0.429521 0.32327
0.803305 -0.571417 0.167877
0.724982 -0.687876 0.0350386
0.619599 -0.781829 -0.0695774
0.491529 -0.858372 -0.146958
0.336949 -0.920038 -0.199987
0.146208 -0.962337 -0.229195
-0.0885437 -0.969158 -0.229983
-0.356199 -0.914042 -0.194033
-0.611968 -0.781787 -0.119604
-0.802445 -0.596332 -0.0216881
-0.911569 -0.403757 0.0776025
-0.958353 -0.233562 0.164343
-0.967904 -0.0926461 0.233621
-0.958423 0.0223868 0.284471
-0.941104 0.116991 0.317233
-0.922271 0.196201 0.333049
-0.904871 0.264171 0.333799
-0.889557 0.32414 0.321903
-0.875626 0.378448 0.300093
-0.861838 0.42858 0.27121
-0.847039 0.475252 0.238035
-0.830581 0.518526 0.20314
-0.81253 0.55797 0.168712
-0.793662 0.592874 0.136388
-0.775201 0.622554 0.107197
-0.758454 0.646597 0.0816048
-0.74455 0.664908 0.0595266
-0.734299 0.677631 0.0402798
-0.728059 0.685142 0.0225929
-0.72553 0.688174 0.00476568
-0.725566 0.687988 -0.0150527
-0.726137 0.686467 -0.0385701
-0.724443 0.686058 -0.0671293
-0.717045 0.689576 -0.101641
-0.699861 0.699861 -0.142793
-0.667833 0.719234 -0.191578
-0.614603 0.748376 -0.249393
-0.534974 0.784135 -0.314539
-0.434331 0.818537 -0.375971
-0.342743 0.848464 -0.403281
-0.880128 0.271961 0.389116
-0.742564 0.441281 0.503855
-0.551547 0.542464 0.633663
-0.300981 0.584615 0.753416
-0.0171011 0.550946 0.834366
0.257316 0.448911 0.855726
0.489975 0.303179 0.817317
0.669548 0.134422 0.730504
0.793653 -0.0454969 0.606667
0.859612 -0.22666 0.457922
0.86702 -0.396983 0.301132
0.82333 -0.54592 0.155242
0.741761 -0.669819 0.0336552
0.633249 -0.771679 -0.0592194
0.500839 -0.856469 -0.124983
0.338907 -0.926005 -0.166302
0.136023 -0.973672 -0.182922
-0.115433 -0.978738 -0.169549
-0.397705 -0.909747 -0.119127
-0.654588 -0.755175 -0.0349967
-0.831637 -0.551691 0.0633783
-0.923359 -0.3509 0.155812
-0.955973 -0.178569 0.232872
-0.955631 -0.0374184 0.292179
-0.939551 0.0777902 0.333456
-0.917911 0.172911 0.357129
-0.89622 0.252863 0.364487
-0.87671 0.321547 0.357753
-0.85945 0.381952 0.339791
-0.84339 0.436211 0.31371
-0.827239 0.485632 0.282553
-0.810091 0.530759 0.249094
-0.791759 0.571495 0.215662
-0.772851 0.607332 0.183984
-0.754507 0.637689 0.155154
-0.738006 0.66221 0.12971
-0.724485 0.680831 0.107656
-0.714834 0.693685 0.0883926
-0.709568 0.701082 0.070684
-0.708585 0.703647 0.0528035
-0.710912 0.702515 0.0328205
-0.714627 0.699449 0.00892727
-0.716983 0.696796 -0.0202872
-0.714624 0.697288 -0.0556951
-0.703722 0.703722 -0.0977262
-0.6798 0.718554 -0.146805
-0.637244 0.743191 -0.203928
-0.569712 0.776388 -0.269535
-0.47591 0.81206 -0.337739
-0.370447 0.842196 -0.391759
-0.853922 0.392512 0.341688
-0.705427 0.526398 0.474635
-0.49985 0.614012 0.610852
-0.242234 0.64126 0.728085
0.0382769 0.596156 0.801956
0.303179 0.489975 0.817317
0.526845 0.344714 0.776921
0.700652 0.176773 0.691258
0.821246 -0.00444748 0.570556
0.88416 -0.189478 0.427037
0.888243 -0.365531 0.278229
0.841318 -0.521296 0.142947
0.756809 -0.652778 0.0334767
0.644961 -0.762779 -0.0468383
0.507438 -0.855879 -0.0998861
0.33687 -0.932828 -0.127872
0.120333 -0.984215 -0.12977
-0.148288 -0.983846 -0.100287
-0.442074 -0.896274 -0.0355387
-0.693924 -0.717968 0.054692
-0.853577 -0.499268 0.148785
-0.927609 -0.293349 0.231273
-0.947164 -0.120317 0.297329
-0.937917 0.0208584 0.346233
-0.915743 0.136492 0.377868
-0.889869 0.232318 0.392633
-0.865098 0.312886 0.392055
-0.843066 0.381778 0.378795
-0.823411 0.44178 0.356124
-0.804935 0.494879 0.327375
-0.786508 0.542244 0.295596
-0.767643 0.584284 0.26332
-0.748703 0.620832 0.232403
-0.730679 0.651526 0.204014
-0.714748 0.67615 0.178762
-0.701991 0.694723 0.156746
-0.693314 0.707404 0.137459
-0.689356 0.714461 0.119721
-0.6902 0.716423 0.101795
-0.695042 0.714315 0.0816803
-0.702058 0.709797 0.0574631
-0.70853 0.705139 0.027638
-0.711126 0.703011 -0.00868508
-0.706158 0.706158 -0.0517835
-0.689576 0.717045 -0.101641
-0.656549 0.737423 -0.158588
-0.601027 0.767341 -0.223502
-0.518137 0.803013 -0.294455
-0.41324 0.836212 -0.36053
-0.313928 0.864533 -0.392468
-0.937783 0.301474 0.17227
-0.822873 0.478923 0.305798
-0.663706 0.597582 0.449877
-0.447802 0.673624 0.587965
-0.18717 0.688354 0.700811
0.0885331 0.635109 0.767332
0.344714 0.526845 0.776921
0.56058 0.382903 0.734258
0.729149 0.216337 0.649261
0.846247 0.0345498 0.531669
0.906158 -0.153545 0.394082
0.907297 -0.334776 0.254435
0.857672 -0.497239 0.130967
0.77052 -0.636471 0.0347061
0.65514 -0.754834 -0.0318902
0.511735 -0.856226 -0.070736
0.331214 -0.93986 -0.0834303
0.0995977 -0.992674 -0.0683953
-0.185937 -0.982326 -0.0215304
-0.48683 -0.871722 0.055651
-0.727628 -0.67005 0.146937
-0.867547 -0.439811 0.232225
-0.924616 -0.231331 0.302608
-0.932269 -0.0582996 0.357038
-0.914694 0.083089 0.395513
-0.886415 0.199389 0.417746
-0.855932 0.295786 0.424136
-0.827545 0.376367 0.416555
-0.802476 0.444477 0.398086
-0.78014 0.502788 0.372271
-0.759382 0.55321 0.342487
-0.739415 0.596823 0.311558
-0.720274 0.63399 0.281534
-0.702697 0.664725 0.253688
-0.687665 0.689065 0.228704
-0.676104 0.707197 0.206774
-0.668861 0.719355 0.187491
-0.666646 0.725789 0.169744
-0.669704 0.726947 0.151805
-0.677394 0.723752 0.131609
-0.687981 0.717778 0.107135
-0.698746 0.711239 0.0767666
-0.70633 0.706777 0.0395546