# vtk DataFile Version 2.0
tmp/0.000.00-10.000.000.001.0046.vtk
ASCII
DATASET UNSTRUCTURED_GRID
POINTS 5100 float
0.5 0 0
1.5 0 0
2.5 0 0
3.5 0 0
4.5 0 0
5.5 0 0
6.5 0 0
7.5 0 0
8.5 0 0
9.5 0 0
10.5 0 0
11.5 0 0
12.5 0 0
13.5 0 0
14.5 0 0
15.5 0 0
16.5 0 0
17.5 0 0
18.5 0 0
19.5 0 0
20.5 0 0
21.5 0 0
22.5 0 0
23.5 0 0
24.5 0 0
25.5 0 0
26.5 0 0
27.5 0 0
28.5 0 0
29.5 0 0
30.5 0 0
31.5 0 0
32.5 0 0
33.5 0 0
34.5 0 0
35.5 0 0
36.5 0 0
37.5 0 0
38.5 0 0
39.5 0 0
40.5 0 0
41.5 0 0
42.5 0 0
43.5 0 0
44.5 0 0
45.5 0 0
46.5 0 0
47.5 0 0
48.5 0 0
49.5 0 0
0 0.5 0
1 0.5 0
2 0.5 0
3 0.5 0
4 0.5 0
5 0.5 0
6 0.5 0
7 0.5 0
8 0.5 0
9 0.5 0
10 0.5 0
11 0.5 0
12 0.5 0
13 0.5 0
14 0.5 0
15 0.5 0
16 0.5 0
17 0.5 0
18 0.5 0
19 0.5 0
20 0.5 0
21 0.5 0
22 0.5 0
23 0.5 0
24 0.5 0
25 0.5 0
26 0.5 0
27 0.5 0
28 0.5 0
29 0.5 0
30 0.5 0
31 0.5 0
32 0.5 0
33 0.5 0
34 0.5 0
35 0.5 0
36 0.5 0
37 0.5 0
38 0.5 0
39 0.5 0
40 0.5 0
41 0.5 0
42 0.5 0
43 0.5 0
44 0.5 0
45 0.5 0
46 0.5 0
47 0.5 0
48 0.5 0
49 0.5 0
50 0.5 0
0.5 1 0
1.5 1 0
2.5 1 0
3.5 1 0
4.5 1 0
5.5 1 0
6.5 1 0
7.5 1 0
8.5 1 0
9.5 1 0
10.5 1 0
11.5 1 0
12.5 1 0
13.5 1 0
14.5 1 0
15.5 1 0
16.5 1 0
17.5 1 0
18.5 1 0
19.5 1 0
20.5 1 0
21.5 1 0
22.5 1 0
23.5 1 0
24.5 1 0
25.5 1 0
26.5 1 0
27.5 1 0
28.5 1 0
29.5 1 0
30.5 1 0
31.5 1 0
32.5 1 0
33.5 1 0
34.5 1 0
35.5 1 0
36.5 1 0
37.5 1 0
38.5 1 0
39.5 1 0
40.5 1 0
41.5 1 0
42.5 1 0
43.5 1 0
44.5 1 0
45.5 1 0
46.5 1 0
47.5 1 0
48.5 1 0
49.5 1 0
0 1.5 0
1 1.5 0
2 1.5 0
3 1.5 0
4 1.5 0
5 1.5 0
6 1.5 0
7 1.5 0
8 1.5 0
9 1.5 0
10 1.5 0
11 1.5 0
12 1.5 0
13 1.5 0
14 1.5 0
15 1.5 0
16 1.5 0
17 1.5 0
18 1.5 0
19 1.5 0
20 1.5 0
21 1.5 0
22 1.5 0
23 1.5 0
24 1.5 0
25 1.5 0
26 1.5 0
27 1.5 0
28 1.5 0
29 1.5 0
30 1.5 0
31 1.5 0
32 1.5 0
33 1.5 0
34 1.5 0
35 1.5 0
36 1.5 0
37 1.5 0
38 1.5 0
39 1.5 0
40 1.5 0
41 1.5 0
42 1.5 0
43 1.5 0
44 1.5 0
45 1.5 0
46 1.5 0
47 1.5 0
48 1.5 0
49 1.5 0
50 1.5 0
0.5 2 0
1.5 2 0
2.5 2 0
3.5 2 0
4.5 2 0
5.5 2 0
6.5 2 0
7.5 2 0
8.5 2 0
9.5 2 0
10.5 2 0
11.5 2 0
12.5 2 0
13.5 2 0
14.5 2 0
15.5 2 0
16.5 2 0
17.5 2 0
18.5 2 0
19.5 2 0
20.5 2 0
21.5 2 0
22.5 2 0
23.5 2 0
24.5 2 0
25.5 2 0
26.5 2 0
27.5 2 0
28.5 2 0
29.5 2 0
30.5 2 0
31.5 2 0
32.5 2 0
33.5 2 0
34.5 2 0
35.5 2 0
36.5 2 0
37.5 2 0
38.5 2 0
39.5 2 0
40.5 2 0
41.5 2 0
42.5 2 0
43.5 2 0
44.5 2 0
45.5 2 0
46.5 2 0
47.5 2 0
48.5 2 0
49.5 2 0
0 2.5 0
1 2.5 0
2 2.5 0
3 2.5 0
4 2.5 0
5 2.5 0
6 2.5 0
7 2.5 0
8 2.5 0
9 2.5 0
10 2.5 0
11 2.5 0
12 2.5 0
13 2.5 0
14 2.5 0
15 2.5 0
16 2.5 0
17 2.5 0
18 2.5 0
19 2.5 0
20 2.5 0
21 2.5 0
22 2.5 0
23 2.5 0
24 2.5 0
25 2.5 0
26 2.5 0
27 2.5 0
28 2.5 0
29 2.5 0
30 2.5 0
31 2.5 0
32 2.5 0
33 2.5 0
34 2.5 0
35 2.5 0
36 2.5 0
37 2.5 0
38 2.5 0
39 2.5 0
40 2.5 0
41 2.5 0
42 2.5 0
43 2.5 0
44 2.5 0
45 2.5 0
46 2.5 0
47 2.5 0
48 2.5 0
49 2.5 0
50 2.5 0
0.5 3 0
1.5 3 0
2.5 3 0
3.5 3 0
4.5 3 0
5.5 3 0
6.5 3 0
7.5 3 0
8.5 3 0
9.5 3 0
10.5 3 0
11.5 3 0
12.5 3 0
13.5 3 0
14.5 3 0
15.5 3 0
16.5 3 0
17.5 3 0
18.5 3 0
19.5 3 0
20.5 3 0
21.5 3 0
22.5 3 0
23.5 3 0
24.5 3 0
25.5 3 0
26.5 3 0
27.5 3 0
28.5 3 0
29.5 3 0
30.5 3 0
31.5 3 0
32.5 3 0
33.5 3 0
34.5 3 0
35.5 3 0
36.5 3 0
37.5 3 0
38.5 3 0
39.5 3 0
40.5 3 0
41.5 3 0
42.5 3 0
43.5 3 0
44.5 3 0
45.5 3 0
46.5 3 0
47.5 3 0
48.5 3 0
49.5 3 0
0 3.5 0
1 3.5 0
2 3.5 0
3 3.5 0
4 3.5 0
5 3.5 0
6 3.5 0
7 3.5 0
8 3.5 0
9 3.5 0
10 3.5 0
11 3.5 0
12 3.5 0
13 3.5 0
14 3.5 0
15 3.5 0
16 3.5 0
17 3.5 0
18 3.5 0
19 3.5 0
20 3.5 0
21 3.5 0
22 3.5 0
23 3.5 0
24 3.5 0
25 3.5 0
26 3.5 0
27 3.5 0
28 3.5 0
29 3.5 0
30 3.5 0
31 3.5 0
32 3.5 0
33 3.5 0
34 3.5 0
35 3.5 0
36 3.5 0
37 3.5 0
38 3.5 0
39 3.5 0
40 3.5 0
41 3.5 0
42 3.5 0
43 3.5 0
44 3.5 0
45 3.5 0
46 3.5 0
47 3.5 0
48 3.5 0
49 3.5 0
50 3.5 0
0.5 4 0
1.5 4 0
2.5 4 0
3.5 4 0
4.5 4 0
5.5 4 0
6.5 4 0
7.5 4 0
8.5 4 0
9.5 4 0
10.5 4 0
11.5 4 0
12.5 4 0
13.5 4 0
14.5 4 0
15.5 4 0
16.5 4 0
17.5 4 0
18.5 4 0
19.5 4 0
20.5 4 0
21.5 4 0
22.5 4 0
23.5 4 0
24.5 4 0
25.5 4 0
26.5 4 0
27.5 4 0
28.5 4 0
29.5 4 0
30.5 4 0
31.5 4 0
32.5 4 0
33.5 4 0
34.5 4 0
35.5 4 0
36.5 4 0
37.5 4 0
38.5 4 0
39.5 4 0
40.5 4 0
41.5 4 0
42.5 4 0
43.5 4 0
44.5 4 0
45.5 4 0
46.5 4 0
47.5 4 0
48.5 4 0
49.5 4 0
0 4.5 0
1 4.5 0
2 4.5 0
3 4.5 0
4 4.5 0
5 4.5 0
6 4.5 0
7 4.5 0
8 4.5 0
9 4.5 0
10 4.5 0
11 4.5 0
12 4.5 0
13 4.5 0
14 4.5 0
15 4.5 0
16 4.5 0
17 4.5 0
18 4.5 0
19 4.5 0
20 4.5 0
21 4.5 0
22 4.5 0
23 4.5 0
24 4.5 0
25 4.5 0
26 4.5 0
27 4.5 0
28 4.5 0
29 4.5 0
30 4.5 0
31 4.5 0
32 4.5 0
33 4.5 0
34 4.5 0
35 4.5 0
36 4.5 0
37 4.5 0
38 4.5 0
39 4.5 0
40 4.5 0
41 4.5 0
42 4.5 0
43 4.5 0
44 4.5 0
45 4.5 0
46 4.5 0
47 4.5 0
48 4.5 0
49 4.5 0
50 4.5 0
0.5 5 0
1.5 5 0
2.5 5 0
3.5 5 0
4.5 5 0
5.5 5 0
6.5 5 0
7.5 5 0
8.5 5 0
9.5 5 0
10.5 5 0
11.5 5 0
12.5 5 0
13.5 5 0
14.5 5 0
15.5 5 0
16.5 5 0
17.5 5 0
18.5 5 0
19.5 5 0
20.5 5 0
21.5 5 0
22.5 5 0
23.5 5 0
24.5 5 0
25.5 5 0
26.5 5 0
27.5 5 0
28.5 5 0
29.5 5 0
30.5 5 0
31.5 5 0
32.5 5 0
33.5 5 0
34.5 5 0
35.5 5 0
36.5 5 0
37.5 5 0
38.5 5 0
39.5 5 0
40.5 5 0
41.5 5 0
42.5 5 0
43.5 5 0
44.5 5 0
45.5 5 0
46.5 5 0
47.5 5 0
48.5 5 0
49.5 5 0
0 5.5 0
1 5.5 0
2 5.5 0
3 5.5 0
4 5.5 0
5 5.5 0
6 5.5 0
7 5.5 0
8 5.5 0
9 5.5 0
10 5.5 0
11 5.5 0
12 5.5 0
13 5.5 0
14 5.5 0
15 5.5 0
16 5.5 0
17 5.5 0
18 5.5 0
19 5.5 0
20 5.5 0
21 5.5 0
22 5.5 0
23 5.5 0
24 5.5 0
25 5.5 0
26 5.5 0
27 5.5 0
28 5.5 0
29 5.5 0
30 5.5 0
31 5.5 0
32 5.5 0
33 5.5 0
34 5.5 0
35 5.5 0
36 5.5 0
37 5.5 0
38 5.5 0
39 5.5 0
40 5.5 0
41 5.5 0
42 5.5 0
43 5.5 0
44 5.5 0
45 5.5 0
46 5.5 0
47 5.5 0
48 5.5 0
49 5.5 0
50 5.5 0
0.5 6 0
1.5 6 0
2.5 6 0
3.5 6 0
4.5 6 0
5.5 6 0
6.5 6 0
7.5 6 0
8.5 6 0
9.5 6 0
10.5 6 0
11.5 6 0
12.5 6 0
13.5 6 0
14.5 6 0
15.5 6 0
16.5 6 0
17.5 6 0
18.5 6 0
19.5 6 0
20.5 6 0
21.5 6 0
22.5 6 0
23.5 6 0
24.5 6 0
25.5 6 0
26.5 6 0
27.5 6 0
28.5 6 0
29.5 6 0
30.5 6 0
31.5 6 0
32.5 6 0
33.5 6 0
34.5 6 0
35.5 6 0
36.5 6 0
37.5 6 0
38.5 6 0
39.5 6 0
40.5 6 0
41.5 6 0
42.5 6 0
43.5 6 0
44.5 6 0
45.5 6 0
46.5 6 0
47.5 6 0
48.5 6 0
49.5 6 0
0 6.5 0
1 6.5 0
2 6.5 0
3 6.5 0
4 6.5 0
5 6.5 0
6 6.5 0
7 6.5 0
8 6.5 0
9 6.5 0
10 6.5 0
11 6.5 0
12 6.5 0
13 6.5 0
14 6.5 0
15 6.5 0
16 6.5 0
17 6.5 0
18 6.5 0
19 6.5 0
20 6.5 0
21 6.5 0
22 6.5 0
23 6.5 0
24 6.5 0
25 6.5 0
26 6.5 0
27 6.5 0
28 6.5 0
29 6.5 0
30 6.5 0
31 6.5 0
32 6.5 0
33 6.5 0
34 6.5 0
35 6.5 0
36 6.5 0
37 6.5 0
38 6.5 0
39 6.5 0
40 6.5 0
41 6.5 0
42 6.5 0
43 6.5 0
44 6.5 0
45 6.5 0
46 6.5 0
47 6.5 0
48 6.5 0
49 6.5 0
50 6.5 0
0.5 7 0
1.5 7 0
2.5 7 0
3.5 7 0
4.5 7 0
5.5 7 0
6.5 7 0
7.5 7 0
8.5 7 0
9.5 7 0
10.5 7 0
11.5 7 0
12.5 7 0
13.5 7 0
14.5 7 0
15.5 7 0
16.5 7 0
17.5 7 0
18.5 7 0
19.5 7 0
20.5 7 0
21.5 7 0
22.5 7 0
23.5 7 0
24.5 7 0
25.5 7 0
26.5 7 0
27.5 7 0
28.5 7 0
29.5 7 0
30.5 7 0
31.5 7 0
32.5 7 0
33.5 7 0
34.5 7 0
35.5 7 0
36.5 7 0
37.5 7 0
38.5 7 0
39.5 7 0
40.5 7 0
41.5 7 0
42.5 7 0
43.5 7 0
44.5 7 0
45.5 7 0
46.5 7 0
47.5 7 0
48.5 7 0
49.5 7 0
0 7.5 0
1 7.5 0
2 7.5 0
3 7.5 0
4 7.5 0
5 7.5 0
6 7.5 0
7 7.5 0
8 7.5 0
9 7.5 0
10 7.5 0
11 7.5 0
12 7.5 0
13 7.5 0
14 7.5 0
15 7.5 0
16 7.5 0
17 7.5 0
18 7.5 0
19 7.5 0
20 7.5 0
21 7.5 0
22 7.5 0
23 7.5 0
24 7.5 0
25 7.5 0
26 7.5 0
27 7.5 0
28 7.5 0
29 7.5 0
30 7.5 0
31 7.5 0
32 7.5 0
33 7.5 0
34 7.5 0
35 7.5 0
36 7.5 0
37 7.5 0
38 7.5 0
39 7.5 0
40 7.5 0
41 7.5 0
42 7.5 0
43 7.5 0
44 7.5 0
45 7.5 0
46 7.5 0
47 7.5 0
48 7.5 0
49 7.5 0
50 7.5 0
0.5 8 0
1.5 8 0
2.5 8 0
3.5 8 0
4.5 8 0
5.5 8 0
6.5 8 0
7.5 8 0
8.5 8 0
9.5 8 0
10.5 8 0
11.5 8 0
12.5 8 0
13.5 8 0
14.5 8 0
15.5 8 0
16.5 8 0
17.5 8 0
18.5 8 0
19.5 8 0
20.5 8 0
21.5 8 0
22.5 8 0
23.5 8 0
24.5 8 0
25.5 8 0
26.5 8 0
27.5 8 0
28.5 8 0
29.5 8 0
30.5 8 0
31.5 8 0
32.5 8 0
33.5 8 0
34.5 8 0
35.5 8 0
36.5 8 0
37.5 8 0
38.5 8 0
39.5 8 0
40.5 8 0
41.5 8 0
42.5 8 0
43.5 8 0
44.5 8 0
45.5 8 0
46.5 8 0
47.5 8 0
48.5 8 0
49.5 8 0
0 8.5 0
1 8.5 0
2 8.5 0
3 8.5 0
4 8.5 0
5 8.5 0
6 8.5 0
7 8.5 0
8 8.5 0
9 8.5 0
10 8.5 0
11 8.5 0
12 8.5 0
13 8.5 0
14 8.5 0
15 8.5 0
16 8.5 0
17 8.5 0
18 8.5 0
19 8.5 0
20 8.5 0
21 8.5 0
22 8.5 0
23 8.5 0
24 8.5 0
25 8.5 0
26 8.5 0
27 8.5 0
28 8.5 0
29 8.5 0
30 8.5 0
31 8.5 0
32 8.5 0
33 8.5 0
34 8.5 0
35 8.5 0
36 8.5 0
37 8.5 0
38 8.5 0
39 8.5 0
40 8.5 0
41 8.5 0
42 8.5 0
43 8.5 0
44 8.5 0
45 8.5 0
46 8.5 0
47 8.5 0
48 8.5 0
49 8.5 0
50 8.5 0
0.5 9 0
1.5 9 0
2.5 9 0
3.5 9 0
4.5 9 0
5.5 9 0
6.5 9 0
7.5 9 0
8.5 9 0
9.5 9 0
10.5 9 0
11.5 9 0
12.5 9 0
13.5 9 0
14.5 9 0
15.5 9 0
16.5 9 0
17.5 9 0
18.5 9 0
19.5 9 0
20.5 9 0
21.5 9 0
22.5 9 0
23.5 9 0
24.5 9 0
25.5 9 0
26.5 9 0
27.5 9 0
28.5 9 0
29.5 9 0
30.5 9 0
31.5 9 0
32.5 9 0
33.5 9 0
34.5 9 0
35.5 9 0
36.5 9 0
37.5 9 0
38.5 9 0
39.5 9 0
40.5 9 0
41.5 9 0
42.5 9 0
43.5 9 0
44.5 9 0
45.5 9 0
46.5 9 0
47.5 9 0
48.5 9 0
49.5 9 0
0 9.5 0
1 9.5 0
2 9.5 0
3 9.5 0
4 9.5 0
5 9.5 0
6 9.5 0
7 9.5 0
8 9.5 0
9 9.5 0
10 9.5 0
11 9.5 0
12 9.5 0
13 9.5 0
14 9.5 0
15 9.5 0
16 9.5 0
17 9.5 0
18 9.5 0
19 9.5 0
20 9.5 0
21 9.5 0
22 9.5 0
23 9.5 0
24 9.5 0
25 9.5 0
26 9.5 0
27 9.5 0
28 9.5 0
29 9.5 0
30 9.5 0
31 9.5 0
32 9.5 0
33 9.5 0
34 9.5 0
35 9.5 0
36 9.5 0
37 9.5 0
38 9.5 0
39 9.5 0
40 9.5 0
41 9.5 0
42 9.5 0
43 9.5 0
44 9.5 0
45 9.5 0
46 9.5 0
47 9.5 0
48 9.5 0
49 9.5 0
50 9.5 0
0.5 10 0
1.5 10 0
2.5 10 0
3.5 10 0
4.5 10 0
5.5 10 0
6.5 10 0
7.5 10 0
8.5 10 0
9.5 10 0
10.5 10 0
11.5 10 0
12.5 10 0
13.5 10 0
14.5 10 0
15.5 10 0
16.5 10 0
17.5 10 0
18.5 10 0
19.5 10 0
20.5 10 0
21.5 10 0
22.5 10 0
23.5 10 0
24.5 10 0
25.5 10 0
26.5 10 0
27.5 10 0
28.5 10 0
29.5 10 0
30.5 10 0
31.5 10 0
32.5 10 0
33.5 10 0
34.5 10 0
35.5 10 0
36.5 10 0
37.5 10 0
38.5 10 0
39.5 10 0
40.5 10 0
41.5 10 0
42.5 10 0
43.5 10 0
44.5 10 0
45.5 10 0
46.5 10 0
47.5 10 0
48.5 10 0
49.5 10 0
0 10.5 0
1 10.5 0
2 10.5 0
3 10.5 0
4 10.5 0
5 10.5 0
6 10.5 0
7 10.5 0
8 10.5 0
9 10.5 0
10 10.5 0
11 10.5 0
12 10.5 0
13 10.5 0
14 10.5 0
15 10.5 0
16 10.5 0
17 10.5 0
18 10.5 0
19 10.5 0
20 10.5 0
21 10.5 0
22 10.5 0
23 10.5 0
24 10.5 0
25 10.5 0
26 10.5 0
27 10.5 0
28 10.5 0
29 10.5 0
30 10.5 0
31 10.5 0
32 10.5 0
33 10.5 0
34 10.5 0
35 10.5 0
36 10.5 0
37 10.5 0
38 10.5 0
39 10.5 0
40 10.5 0
41 10.5 0
42 10.5 0
43 10.5 0
44 10.5 0
45 10.5 0
46 10.5 0
47 10.5 0
48 10.5 0
49 10.5 0
50 10.5 0
[...]
POINT_DATA 5100
VECTORS velocity float
-0.0264273 -0.0589265 0.997912
-0.168621 -0.189702 0.967254
-0.222304 -0.237473 0.945615
-0.159364 -0.320618 0.933706
-0.0515192 -0.502708 0.86292
0.0437719 -0.732869 0.67896
0.0875155 -0.90733 0.41121
0.0803851 -0.985389 0.150153
0.0449523 -0.997483 -0.0548437
-0.00158437 -0.979165 -0.203058
-0.0511412 -0.949899 -0.308345
-0.100776 -0.917724 -0.384222
-0.15023 -0.884603 -0.441484
-0.201136 -0.849 -0.488614
-0.256776 -0.806917 -0.531931
-0.321477 -0.752472 -0.574837
-0.398907 -0.678974 -0.616334
-0.489079 -0.581705 -0.649939
-0.585749 -0.462562 -0.665533
-0.677915 -0.332814 -0.655489
-0.755961 -0.208769 -0.620434
-0.816369 -0.103146 -0.568245
-0.860861 -0.0208139 -0.508414
-0.893088 0.0394298 -0.448151
-0.916447 0.0814543 -0.391778
-0.933436 0.109603 -0.34159
-0.945728 0.127821 -0.298766
-0.954395 0.139468 -0.263968
-0.960109 0.147351 -0.237654
-0.963259 0.153759 -0.220203
-0.964028 0.16046 -0.211904
-0.962422 0.168661 -0.212833
-0.958317 0.178992 -0.22269
-0.951523 0.191549 -0.240652
-0.941892 0.206005 -0.265332
-0.929449 0.221758 -0.294869
-0.91449 0.238091 -0.32714
-0.897613 0.254314 -0.360022
-0.879652 0.269882 -0.391632
-0.861542 0.284486 -0.420492
-0.844142 0.2981 -0.445601
-0.828076 0.310978 -0.466457
-0.81358 0.323652 -0.483049
-0.800379 0.336953 -0.495839
-0.787573 0.352092 -0.505727
-0.773441 0.370763 -0.514124
-0.754903 0.395173 -0.523411
-0.725969 0.427626 -0.538614
-0.674301 0.46763 -0.571525
-0.580546 0.502729 -0.640492
-0.0589265 -0.0264273 0.997912
-0.237879 -0.252618 0.937869
-0.27437 -0.3267 0.904427
-0.191436 -0.405803 0.893687
-0.0395851 -0.55221 0.832764
0.112418 -0.729101 0.67511
0.213712 -0.871281 0.441811
0.251623 -0.94874 0.191255
0.239842 -0.970223 -0.0338143
0.195969 -0.956074 -0.21799
0.132738 -0.923165 -0.360758
0.0583417 -0.882516 -0.46665
-0.0217974 -0.840452 -0.541448
-0.104108 -0.799764 -0.591218
-0.186717 -0.760437 -0.62199
-0.269483 -0.720194 -0.639296
-0.353721 -0.675072 -0.647425
-0.441272 -0.620203 -0.648558
-0.532829 -0.551113 -0.642159
-0.626074 -0.465811 -0.625341
-0.715103 -0.367101 -0.594865
-0.792611 -0.263042 -0.550069
-0.853683 -0.163979 -0.494304
-0.897786 -0.0780774 -0.433456
-0.927665 -0.00897337 -0.373306
-0.947086 0.0436719 -0.317994
-0.959339 0.0824495 -0.269947
-0.966766 0.110771 -0.230418
-0.970847 0.132058 -0.200039
-0.972418 0.149355 -0.179154
-0.971868 0.165129 -0.167942
-0.969278 0.181162 -0.166375
-0.964515 0.198498 -0.174095
-0.957339 0.217486 -0.190268
-0.947526 0.237903 -0.213532
-0.935016 0.259132 -0.242066
-0.920023 0.280372 -0.27377
-0.903079 0.300825 -0.306515
-0.884982 0.319854 -0.338379
-0.866654 0.33709 -0.367805
-0.84898 0.35248 -0.393689
-0.832637 0.366268 -0.415408
-0.817945 0.378973 -0.432834
-0.804737 0.391407 -0.446317
-0.792243 0.404752 -0.456647
-0.778938 0.420698 -0.465048
-0.762159 0.441536 -0.473455
-0.737053 0.469962 -0.485683
-0.694041 0.507442 -0.510695
-0.616766 0.547076 -0.565957
-0.502729 0.580546 -0.640492
-0.252618 -0.237879 0.937869
-0.307964 -0.33737 0.889573
-0.227735 -0.398842 0.888291
-0.0595549 -0.50928 0.858538
0.127112 -0.655309 0.744589
0.272221 -0.789049 0.550725
0.352819 -0.880183 0.317485
0.373378 -0.923925 0.083372
0.347227 -0.928983 -0.12816
0.287453 -0.907695 -0.305714
0.205089 -0.871642 -0.445174
0.109356 -0.830012 -0.54692
0.00776537 -0.788975 -0.614376
-0.0941826 -0.751543 -0.652927
-0.193304 -0.717846 -0.668828
-0.288721 -0.685714 -0.668159
-0.381399 -0.651388 -0.655918
-0.473191 -0.610263 -0.63535
-0.565405 -0.557797 -0.607602
-0.657182 -0.490868 -0.57198
-0.744557 -0.409558 -0.52716
-0.821463 -0.3184 -0.473095
-0.882683 -0.225458 -0.412358
-0.926503 -0.139119 -0.349624
-0.954868 -0.064957 -0.28984
-0.971559 -0.0047087 -0.23675
-0.98035 0.042854 -0.192556
-0.9841 0.080521 -0.158312
-0.984629 0.11153 -0.134415
-0.9829 0.138874 -0.120923
-0.979265 0.16492 -0.117647
-0.973671 0.191226 -0.124089
-0.965837 0.218511 -0.139325
-0.955449 0.246758 -0.161947
-0.942344 0.2754 -0.190113
-0.92666 0.303552 -0.221713
-0.908902 0.33026 -0.254609
-0.889883 0.354712 -0.286859
-0.870583 0.376398 -0.316875
-0.851962 0.395175 -0.343509
-0.834785 0.411238 -0.366082
-0.819473 0.425077 -0.384413
-0.805959 0.437467 -0.398814
-0.793571 0.449563 -0.410045
-0.78091 0.463043 -0.41925
-0.76558 0.480263 -0.428059
-0.743493 0.504236 -0.439276
-0.707232 0.537811 -0.458893
-0.644318 0.57931 -0.499253
-0.547076 0.616766 -0.565957
-0.189702 -0.168621 0.967254
-0.33737 -0.307964 0.889573
-0.279779 -0.341862 0.897136
-0.109865 -0.410512 0.905212
0.108235 -0.528105 0.842253
0.297331 -0.6583 0.691545
0.420791 -0.767881 0.483005
0.476438 -0.842396 0.251745
0.474141 -0.880126 0.0238416
0.425887 -0.886194 -0.182427
0.344019 -0.869289 -0.354947
0.240818 -0.839152 -0.487679
0.127397 -0.804313 -0.580388
0.0123626 -0.770541 -0.63727
-0.0989154 -0.740351 -0.664903
-0.204239 -0.713381 -0.670354
-0.303946 -0.687143 -0.659887
-0.399982 -0.657776 -0.638236
-0.494756 -0.62069 -0.608243
-0.589698 -0.571336 -0.570817
-0.683701 -0.506468 -0.525397
-0.772296 -0.426008 -0.47125
-0.848888 -0.334491 -0.409273
-0.908088 -0.240273 -0.342995
-0.948557 -0.152145 -0.277653
-0.972953 -0.075887 -0.218185
-0.985716 -0.013145 -0.167901
-0.991006 0.0375878 -0.128433
-0.991785 0.0793871 -0.100296
-0.98978 0.115645 -0.0834323
-0.985751 0.149309 -0.0774729
-0.979802 0.182491 -0.0817658
-0.971655 0.216349 -0.095287
-0.960908 0.251133 -0.116571
-0.947278 0.286363 -0.14374
-0.930808 0.321078 -0.174659
-0.911966 0.354123 -0.207159
-0.891608 0.384427 -0.23927
-0.870815 0.411234 -0.269383
-0.85068 0.434205 -0.296326
-0.83211 0.453405 -0.3194
-0.815666 0.469216 -0.338415
-0.801414 0.482319 -0.353701
-0.788804 0.493757 -0.36605
-0.776557 0.505098 -0.37661
-0.762488 0.518613 -0.38685
-0.743067 0.53737 -0.398855
-0.712417 0.564889 -0.416368
-0.661069 0.602998 -0.446522
-0.57931 0.644318 -0.499253
-0.46763 0.674301 -0.571525
-0.3267 -0.27437 0.904427
-0.341862 -0.279779 0.897136
-0.190083 -0.296129 0.936043
0.0507468 -0.369831 0.927712
0.285981 -0.482808 0.827714
0.457095 -0.601016 0.655625
0.555076 -0.703608 0.443652
0.587066 -0.780447 0.215072
0.561661 -0.827297 -0.0108583
0.489221 -0.845075 -0.215663
0.383582 -0.839688 -0.384434
0.260198 -0.819966 -0.509855
0.132306 -0.794354 -0.592872
0.00842494 -0.768475 -0.639824
-0.107758 -0.744536 -0.658828
-0.216136 -0.721921 -0.657355
-0.318718 -0.698051 -0.641205
-0.418385 -0.669074 -0.614243
-0.517689 -0.63041 -0.57843
-0.617436 -0.577537 -0.534064
-0.715208 -0.507505 -0.480537
-0.80497 -0.421158 -0.417911
-0.879263 -0.324555 -0.348655
-0.933314 -0.227357 -0.277911
-0.967474 -0.138546 -0.21166
-0.985981 -0.0629906 -0.154512
-0.994051 -0.00104533 -0.108915
-0.995889 0.0498462 -0.0756344
-0.994139 0.0933445 -0.0545349
-0.990095 0.13297 -0.045075
-0.984099 0.171438 -0.0464544
-0.97592 0.210397 -0.0575616
-0.965076 0.25043 -0.0768905
-0.951149 0.291204 -0.102543
-0.934044 0.331728 -0.132355
-0.914148 0.370674 -0.164115
-0.892328 0.40671 -0.195801
-0.869767 0.438791 -0.22576
-0.847722 0.466337 -0.25278
-0.827291 0.489219 -0.276141
-0.809233 0.507671 -0.295656
-0.793802 0.52223 -0.311696
-0.780612 0.533793 -0.32513
-0.76853 0.543757 -0.33718
-0.755545 0.554212 -0.349285
-0.738519 0.568095 -0.363121
-0.712602 0.589081 -0.381028
-0.670425 0.620601 -0.406676
-0.602998 0.661069 -0.446522
-0.507442 0.694041 -0.510695
-0.237473 -0.222304 0.945615
-0.398842 -0.227735 0.888291
-0.296129 -0.190083 0.936043
-0.054989 -0.202626 0.977711
0.221731 -0.278548 0.934476
0.443152 -0.387995 0.808131
0.588467 -0.504499 0.631812
0.665255 -0.613772 0.425112
0.679319 -0.705977 0.200305
0.634174 -0.77275 -0.0261124
0.538877 -0.809757 -0.232176
0.410889 -0.819865 -0.398738
0.270184 -0.81168 -0.517857
0.131542 -0.79448 -0.592872
0.0019539 -0.774474 -0.632603
-0.117532 -0.754095 -0.646164
-0.229025 -0.73284 -0.640697
-0.335789 -0.708212 -0.621032
-0.441002 -0.676354 -0.589968
-0.54665 -0.632611 -0.548614
-0.652131 -0.57256 -0.496891
-0.752991 -0.494053 -0.434646
-0.841452 -0.3998 -0.363482
-0.910026 -0.29814 -0.288038
-0.955953 -0.199841 -0.214981
-0.982152 -0.113037 -0.150332
-0.994388 -0.0406416 -0.0976758
-0.998124 0.0188076 -0.0582606
-0.997107 0.0689648 -0.03197
-0.993333 0.113853 -0.018109
-0.987504 0.156808 -0.0157316
-0.979506 0.200021 -0.0236457
-0.968822 0.244456 -0.0403216
-0.9549 0.289979 -0.0638598
-0.937485 0.335624 -0.0920843
-0.916832 0.379937 -0.122744
-0.893766 0.421356 -0.153756
-0.86953 0.458568 -0.183394
-0.845525 0.490742 -0.21038
-0.823054 0.517549 -0.233934
-0.803109 0.539053 -0.253847
-0.786185 0.555638 -0.270519
-0.772114 0.568038 -0.284907
-0.759946 0.577469 -0.298347
-0.747845 0.585808 -0.312342
-0.732949 0.595766 -0.328404
-0.711073 0.610898 -0.348109
-0.676228 0.635134 -0.373258
-0.620601 0.670425 -0.406676
-0.537811 0.707232 -0.458893
-0.427626 0.725969 -0.538614
-0.405803 -0.191436 0.893687
-0.410512 -0.109865 0.905212
-0.202626 -0.054989 0.977711
0.0985191 -0.0749733 0.992307
0.368503 -0.157717 0.91615
0.56045 -0.269298 0.783182
0.683413 -0.390894 0.616561
0.747462 -0.51363 0.421289
0.75153 -0.628132 0.201626
0.692225 -0.721191 -0.0266126
0.57763 -0.781435 -0.236015
0.430582 -0.807991 -0.402181
0.276164 -0.810161 -0.517081
0.129639 -0.799221 -0.586889
-0.00449664 -0.782685 -0.622402
-0.127849 -0.763574 -0.632937
-0.244131 -0.741617 -0.624823
-0.357109 -0.714331 -0.601834
-0.469572 -0.677702 -0.565882
-0.582304 -0.626925 -0.517578
-0.692721 -0.557922 -0.457012
-0.794126 -0.470031 -0.385272
-0.87771 -0.368575 -0.306231
-0.937466 -0.264118 -0.226715
-0.973765 -0.167465 -0.154071
-0.992018 -0.084739 -0.0933758
-0.998773 -0.0164038 -0.0467253
-0.999071 0.0406953 -0.0141958
-0.995846 0.0909115 0.00502214
-0.990332 0.138193 0.0120329
-0.982644 0.185324 0.00812224
-0.972293 0.233711 -0.00515562
-0.958629 0.283476 -0.0259125
-0.941235 0.333728 -0.0519798
-0.920211 0.382931 -0.0810843
-0.896286 0.429338 -0.111088
-0.870706 0.4714 -0.140188
-0.844973 0.508062 -0.167014
-0.820562 0.538809 -0.190689
-0.798701 0.563546 -0.210934
-0.780153 0.582505 -0.228144
-0.765017 0.596266 -0.243344
-0.752571 0.605868 -0.257995
-0.741171 0.612977 -0.273724
-0.728175 0.620058 -0.292044
-0.709825 0.630429 -0.314179
-0.681024 0.648018 -0.340996
-0.635134 0.676228 -0.373258
-0.564889 0.712417 -0.416368
-0.469962 0.737053 -0.485683
-0.320618 -0.159364 0.933706
-0.50928 -0.0595549 0.858538
-0.369831 0.0507468 0.927712
-0.0749733 0.0985191 0.992307
0.23669 0.0573767 0.96989
0.473665 -0.0360255 0.879968
0.636357 -0.151191 0.756433
0.744446 -0.278511 0.606821
0.803756 -0.415167 0.426161
0.805343 -0.553272 0.212866
0.738056 -0.674509 -0.0176455
0.608784 -0.758726 -0.231768
0.446586 -0.800711 -0.399278
0.281489 -0.811407 -0.512233
0.128398 -0.804913 -0.579335
-0.0107532 -0.790335 -0.612581
-0.139557 -0.771303 -0.620979
-0.26253 -0.747666 -0.609978
-0.383297 -0.716772 -0.582512
-0.503754 -0.674301 -0.539954
-0.623022 -0.615361 -0.482882
-0.736228 -0.536677 -0.412246
-0.834795 -0.439834 -0.331155
-0.910221 -0.333098 -0.246056
-0.959423 -0.22846 -0.165269
-0.986159 -0.135435 -0.0956389
-0.997526 -0.0573984 -0.0405957
-0.999971 0.00753439 -0.00071117
-0.997659 0.0637092 0.0248537
-0.992589 0.115629 0.0373779
-0.985261 0.166722 0.0382756
-0.975308 0.218918 0.0291457
-0.962037 0.272662 0.0118662
-0.944891 0.327185 -0.0114152
-0.923809 0.38092 -0.0384232
-0.899398 0.431968 -0.0669841
-0.872865 0.478579 -0.0952283
-0.845754 0.519512 -0.121686
-0.819665 0.554094 -0.145356
-0.796031 0.582092 -0.165845
-0.775883 0.603601 -0.183495
-0.759614 0.619063 -0.199366
-0.746772 0.629359 -0.215034
-0.735935 0.635962 -0.232278
-0.724657 0.641098 -0.252716
-0.709464 0.647819 -0.277472
-0.685822 0.65986 -0.306974
-0.648018 0.681024 -0.340996
-0.589081 0.712602 -0.381028
-0.504236 0.743493 -0.439276
-0.395173 0.754903 -0.523411
-0.55221 -0.0395851 0.832764
-0.528105 0.108235 0.842253
-0.278548 0.221731 0.934476
0.0573767 0.23669 0.96989
0.340733 0.169929 0.924676
0.540252 0.0686703 0.838697
0.680281 -0.0475704 0.731406
0.779742 -0.178068 0.600246
0.839622 -0.325709 0.434682
0.844234 -0.484868 0.228414
0.774439 -0.632636 -0.00414997
0.635138 -0.739348 -0.223525
0.461329 -0.79516 -0.393569
0.287443 -0.813084 -0.506231
0.12783 -0.81018 -0.572073
-0.017544 -0.797026 -0.60369
-0.15344 -0.777697 -0.609626
-0.284556 -0.751979 -0.594606
-0.413949 -0.716882 -0.561005
-0.542246 -0.667726 -0.510011
-0.666545 -0.599778 -0.442701
-0.779664 -0.511231 -0.361618
-0.87203 -0.406597 -0.272475
-0.937028 -0.296858 -0.183994
-0.975357 -0.194153 -0.104806
-0.993599 -0.105564 -0.0402212
-0.999469 -0.0315382 0.00821352
-0.99865 0.0316635 0.04118
-0.994222 0.0889201 0.0601265
-0.987282 0.144335 0.0666431
-0.977715 0.200447 0.0624118
-0.964856 0.25811 0.049317
-0.948053 0.316744 0.0294815
-0.927097 0.374786 0.00516648
-0.902468 0.430223 -0.0214383
-0.87531 0.481133 -0.0484163
-0.847168 0.526117 -0.0742072
-0.819713 0.564386 -0.0976692
-0.794534 0.595593 -0.118259
-0.77291 0.61972 -0.136222
-0.755531 0.63709 -0.15261
-0.742242 0.648449 -0.169091
-0.731877 0.655104 -0.187605
-0.722186 0.659071 -0.209935
-0.70989 0.663146 -0.237263
-0.690801 0.670804 -0.269844
-0.65986 0.685822 -0.306974
-0.610898 0.711073 -0.348109
-0.53737 0.743067 -0.398855
-0.441536 0.762159 -0.473455
-0.502708 -0.0515192 0.86292
-0.655309 0.127112 0.744589
-0.482808 0.285981 0.827714
-0.157717 0.368503 0.91615
0.169929 0.340733 0.924676
0.411561 0.255487 0.874839
0.579688 0.151873 0.80056
0.703525 0.0375195 0.70968
0.798226 -0.0933603 0.59508
0.861348 -0.248198 0.443257
0.872158 -0.424024 0.244018
0.803945 -0.594617 0.0101038
0.658585 -0.721384 -0.214175
0.475876 -0.789723 -0.387143
0.294096 -0.814399 -0.500262
0.127378 -0.81501 -0.565273
-0.0254878 -0.803312 -0.595012
-0.169787 -0.783635 -0.597569
-0.30999 -0.755541 -0.577117
-0.448268 -0.715594 -0.535705
-0.583613 -0.658826 -0.474705
-0.710798 -0.581126 -0.396307
-0.820661 -0.482964 -0.305388
-0.903979 -0.372193 -0.21046
-0.957466 -0.26167 -0.121606
-0.985661 -0.162215 -0.0464576
-0.996902 -0.0777644 0.0118071
-0.998557 -0.00614411 0.0533479
-0.995158 0.0574992 0.0797097
-0.98869 0.117892 0.0927023
-0.979469 0.178263 0.0941454
-0.966965 0.239978 0.0859611
-0.950486 0.302721 0.0702544
-0.929709 0.364986 0.0492638
-0.904997 0.424672 0.0251789
-0.877428 0.479709 -5.70739e-05
-0.848526 0.528572 -0.0248088
-0.819986 0.570385 -0.0477893
-0.793504 0.604723 -0.068277
-0.77057 0.631475 -0.0863815
-0.752157 0.650867 -0.103109
-0.738423 0.663542 -0.120184
-0.728479 0.670672 -0.139701
-0.720285 0.6741 -0.163642
-0.71071 0.676394 -0.193344
-0.695764 0.680767 -0.22906
-0.670804 0.690801 -0.269844
-0.630429 0.709825 -0.314179
-0.568095 0.738519 -0.363121
-0.480263 0.76558 -0.428059
-0.370763 0.773441 -0.514124
-0.729101 0.112418 0.67511
-0.6583 0.297331 0.691545
-0.387995 0.443152 0.808131
-0.0360255 0.473665 0.879968
0.255487 0.411561 0.874839
0.458183 0.317757 0.83012
0.602553 0.216012 0.768289
0.714943 0.10541 0.691192
0.807026 -0.0238524 0.590034
0.87432 -0.182496 0.449732
0.892635 -0.370295 0.257069
0.828612 -0.559359 0.0228012
0.680209 -0.703671 -0.205337
0.490496 -0.783788 -0.380908
0.301137 -0.815336 -0.494513
0.12659 -0.819787 -0.558502
-0.0348543 -0.809765 -0.585718
-0.188561 -0.789695 -0.583804
-0.338468 -0.758788 -0.556489
-0.485513 -0.713116 -0.50571
-0.62661 -0.647657 -0.433475
-0.754043 -0.559631 -0.343851
-0.857476 -0.452632 -0.244663
-0.929712 -0.33775 -0.146834
-0.97171 -0.22831 -0.0604407
-0.991145 -0.132481 0.00896037
-0.996875 -0.0509124 0.0604035
-0.995236 0.0204707 0.0953177
-0.98948 0.0867923 0.115743
-0.980608 0.152008 0.123699
-0.968372 0.218101 0.121192
-0.952124 0.28511 0.110328
-0.931469 0.351648 0.0933225
-0.906683 0.41556 0.0723559
-0.87879 0.474648 0.0493803
-0.84929 0.527281 0.0260884
-0.819871 0.572535 0.00391321
-0.792288 0.609932 -0.0162239
-0.768202 0.63929 -0.0342622
-0.748849 0.660765 -0.0511241
-0.734697 0.674923 -0.0685569
-0.725153 0.68284 -0.0887881
-0.718398 0.686225 -0.114017
-0.71143 0.687467 -0.145797
-0.700358 0.689537 -0.18449
-0.680767 0.695764 -0.22906
-0.647819 0.709464 -0.277472
-0.595766 0.732949 -0.328404
-0.518613 0.762488 -0.38685
-0.420698 0.778938 -0.465048
-0.732869 0.0437719 0.67896
-0.789049 0.272221 0.550725
-0.601016 0.457095 0.655625
-0.269298 0.56045 0.783182
0.0686703 0.540252 0.838697
0.317757 0.458183 0.83012
0.489218 0.363 0.79303
0.616101 0.26536 0.741623
0.720292 0.159349 0.67512
0.810913 0.0329453 0.584238
0.882383 -0.126851 0.453111
0.908318 -0.322477 0.266397
0.849892 -0.52593 0.0328789
0.700582 -0.685635 -0.19771
0.505177 -0.777217 -0.37514
0.308311 -0.816053 -0.488878
0.125254 -0.824787 -0.551397
-0.0457079 -0.816645 -0.575328
-0.209686 -0.795999 -0.567818
-0.369758 -0.761601 -0.532206
-0.525141 -0.709062 -0.470594
-0.670165 -0.633768 -0.386286
-0.794783 -0.53523 -0.286093
-0.888901 -0.420808 -0.18104
-0.949021 -0.303987 -0.083376
-0.980439 -0.196817 -0.00167131
-0.992699 -0.103973 0.0611418
-0.9941 -0.0233086 0.105938
-0.989587 0.0501732 0.134907
-0.981196 0.12107 0.150322
-0.969171 0.192066 0.154333
-0.953025 0.263664 0.149079
-0.932362 0.334662 0.136758
-0.907405 0.402897 0.119541
-0.879157 0.466056 0.0993755
-0.849109 0.522428 0.0779952
-0.818919 0.571074 0.0569787
-0.790366 0.611488 0.0374687
-0.765243 0.643439 0.0197267
-0.745025 0.66703 0.00295018
-0.730479 0.682779 -0.0145937
-0.72132 0.691705 -0.0352382
-0.715965 0.695431 -0.0613982
-0.711533 0.696216 -0.0948851
-0.704168 0.696837 -0.136255
-0.689537 0.700358 -0.18449
-0.663146 0.70989 -0.237263
-0.620058 0.728175 -0.292044
-0.554212 0.755545 -0.349285
-0.463043 0.78091 -0.41925
-0.352092 0.787573 -0.505727
-0.871281 0.213712 0.441811
-0.767881 0.420791 0.483005
-0.504499 0.588467 0.631812
-0.151191 0.636357 0.756433
0.151873 0.579688 0.80056
0.363 0.489218 0.79303
0.510717 0.396578 0.76282
0.624717 0.303919 0.719279
0.722913 0.202769 0.660516
0.812676 0.07999 0.5772
0.887908 -0.0789917 0.453189
0.920978 -0.27913 0.271821
0.868781 -0.49357 0.0400938
0.72006 -0.666963 -0.191504
0.519924 -0.76995 -0.36994
0.315531 -0.816584 -0.483353
0.123297 -0.830039 -0.543905
-0.0581248 -0.823892 -0.563758
-0.233269 -0.802303 -0.54945
-0.403875 -0.763454 -0.504007
-0.566757 -0.702671 -0.430163
-0.713232 -0.616532 -0.333448
-0.831687 -0.507951 -0.22424
-0.914247 -0.388105 -0.116306
-0.962269 -0.271243 -0.0215578
-0.984548 -0.166537 0.0541278
-0.991051 -0.0751192 0.110339
-0.988788 0.00695878 0.149167
-0.981255 0.0846159 0.173146
-0.969489 0.161254 0.184632
-0.953336 0.237937 0.185838
-0.932494 0.313729 0.178964
-0.907193 0.386507 0.166172
-0.878457 0.453863 0.149401
-0.847803 0.514027 0.130409
-0.816853 0.566081 0.110923
-0.787374 0.609522 0.0923291
-0.761265 0.644075 0.0751208
-0.740211 0.669812 0.0586497
-0.725268 0.68723 0.041238
-0.716465 0.697322 0.0204818
-0.712472 0.701673 -0.00623655
-0.710526 0.702475 -0.0410101
-0.706767 0.702364 -0.0846515
-0.696837 0.704168 -0.136255
-0.676394 0.71071 -0.193344
-0.641098 0.724657 -0.252716
-0.585808 0.747845 -0.312342
-0.505098 0.776557 -0.37661
-0.404752 0.792243 -0.456647
-0.90733 0.0875155 0.41121
-0.880183 0.352819 0.317485
-0.703608 0.555076 0.443652
-0.390894 0.683413 0.616561
-0.0475704 0.680281 0.731406
0.216012 0.602553 0.768289
0.396578 0.510717 0.76282
0.526506 0.422364 0.737835
0.63088 0.334865 0.699897
0.724546 0.238626 0.646599
0.813719 0.120003 0.568737
0.892162 -0.0367027 0.450222
0.931694 -0.238818 0.273702
0.885984 -0.461564 0.044617
0.738974 -0.647329 -0.186769
0.534858 -0.761803 -0.365491
0.322822 -0.816773 -0.478193
0.120627 -0.835363 -0.536299
-0.0723842 -0.831229 -0.551198
-0.259726 -0.808111 -0.528677
-0.441064 -0.763542 -0.471663
-0.609955 -0.693001 -0.384323
-0.754647 -0.595439 -0.275609
-0.863633 -0.478111 -0.159839
-0.933376 -0.355093 -0.0521378
-0.97021 -0.239309 0.0377359
-0.984884 -0.136179 0.107047
-0.986571 -0.0440564 0.157281
-0.980681 0.0416319 0.191133
-0.969433 0.124856 0.211212
-0.953252 0.207302 0.219857
-0.932069 0.288377 0.219286
-0.906201 0.366056 0.211665
-0.876764 0.437852 0.198926