# vtk DataFile Version 2.0
tmp/0.000.00-10.000.000.001.004.vtk
ASCII
DATASET UNSTRUCTURED_GRID
POINTS 5101 float
0 0 0
1 0 0
2 0 0
3 0 0
4 0 0
5 0 0
6 0 0
7 0 0
8 0 0
9 0 0
10 0 0
11 0 0
12 0 0
13 0 0
14 0 0
15 0 0
16 0 0
17 0 0
18 0 0
19 0 0
20 0 0
21 0 0
22 0 0
23 0 0
24 0 0
25 0 0
26 0 0
27 0 0
28 0 0
29 0 0
30 0 0
31 0 0
32 0 0
33 0 0
34 0 0
35 0 0
36 0 0
37 0 0
38 0 0
39 0 0
40 0 0
41 0 0
42 0 0
43 0 0
44 0 0
45 0 0
46 0 0
47 0 0
48 0 0
49 0 0
50 0 0
0.5 0.5 0
1.5 0.5 0
2.5 0.5 0
3.5 0.5 0
4.5 0.5 0
5.5 0.5 0
6.5 0.5 0
7.5 0.5 0
8.5 0.5 0
9.5 0.5 0
10.5 0.5 0
11.5 0.5 0
12.5 0.5 0
13.5 0.5 0
14.5 0.5 0
15.5 0.5 0
16.5 0.5 0
17.5 0.5 0
18.5 0.5 0
19.5 0.5 0
20.5 0.5 0
21.5 0.5 0
22.5 0.5 0
23.5 0.5 0
24.5 0.5 0
25.5 0.5 0
26.5 0.5 0
27.5 0.5 0
28.5 0.5 0
29.5 0.5 0
30.5 0.5 0
31.5 0.5 0
32.5 0.5 0
33.5 0.5 0
34.5 0.5 0
35.5 0.5 0
36.5 0.5 0
37.5 0.5 0
38.5 0.5 0
39.5 0.5 0
40.5 0.5 0
41.5 0.5 0
42.5 0.5 0
43.5 0.5 0
44.5 0.5 0
45.5 0.5 0
46.5 0.5 0
47.5 0.5 0
48.5 0.5 0
49.5 0.5 0
0 1 0
1 1 0
2 1 0
3 1 0
4 1 0
5 1 0
6 1 0
7 1 0
8 1 0
9 1 0
10 1 0
11 1 0
12 1 0
13 1 0
14 1 0
15 1 0
16 1 0
17 1 0
18 1 0
19 1 0
20 1 0
21 1 0
22 1 0
23 1 0
24 1 0
25 1 0
26 1 0
27 1 0
28 1 0
29 1 0
30 1 0
31 1 0
32 1 0
33 1 0
34 1 0
35 1 0
36 1 0
37 1 0
38 1 0
39 1 0
40 1 0
41 1 0
42 1 0
43 1 0
44 1 0
45 1 0
46 1 0
47 1 0
48 1 0
49 1 0
50 1 0
0.5 1.5 0
1.5 1.5 0
2.5 1.5 0
3.5 1.5 0
4.5 1.5 0
5.5 1.5 0
6.5 1.5 0
7.5 1.5 0
8.5 1.5 0
9.5 1.5 0
10.5 1.5 0
11.5 1.5 0
12.5 1.5 0
13.5 1.5 0
14.5 1.5 0
15.5 1.5 0
16.5 1.5 0
17.5 1.5 0
18.5 1.5 0
19.5 1.5 0
20.5 1.5 0
21.5 1.5 0
22.5 1.5 0
23.5 1.5 0
24.5 1.5 0
25.5 1.5 0
26.5 1.5 0
27.5 1.5 0
28.5 1.5 0
29.5 1.5 0
30.5 1.5 0
31.5 1.5 0
32.5 1.5 0
33.5 1.5 0
34.5 1.5 0
35.5 1.5 0
36.5 1.5 0
37.5 1.5 0
38.5 1.5 0
39.5 1.5 0
40.5 1.5 0
41.5 1.5 0
42.5 1.5 0
43.5 1.5 0
44.5 1.5 0
45.5 1.5 0
46.5 1.5 0
47.5 1.5 0
48.5 1.5 0
49.5 1.5 0
0 2 0
1 2 0
2 2 0
3 2 0
4 2 0
5 2 0
6 2 0
7 2 0
8 2 0
9 2 0
10 2 0
11 2 0
12 2 0
13 2 0
14 2 0
15 2 0
16 2 0
17 2 0
18 2 0
19 2 0
20 2 0
21 2 0
22 2 0
23 2 0
24 2 0
25 2 0
26 2 0
27 2 0
28 2 0
29 2 0
30 2 0
31 2 0
32 2 0
33 2 0
34 2 0
35 2 0
36 2 0
37 2 0
38 2 0
39 2 0
40 2 0
41 2 0
42 2 0
43 2 0
44 2 0
45 2 0
46 2 0
47 2 0
48 2 0
49 2 0
50 2 0
0.5 2.5 0
1.5 2.5 0
2.5 2.5 0
3.5 2.5 0
4.5 2.5 0
5.5 2.5 0
6.5 2.5 0
7.5 2.5 0
8.5 2.5 0
9.5 2.5 0
10.5 2.5 0
11.5 2.5 0
12.5 2.5 0
13.5 2.5 0
14.5 2.5 0
15.5 2.5 0
16.5 2.5 0
17.5 2.5 0
18.5 2.5 0
19.5 2.5 0
20.5 2.5 0
21.5 2.5 0
22.5 2.5 0
23.5 2.5 0
24.5 2.5 0
25.5 2.5 0
26.5 2.5 0
27.5 2.5 0
28.5 2.5 0
29.5 2.5 0
30.5 2.5 0
31.5 2.5 0
32.5 2.5 0
33.5 2.5 0
34.5 2.5 0
35.5 2.5 0
36.5 2.5 0
37.5 2.5 0
38.5 2.5 0
39.5 2.5 0
40.5 2.5 0
41.5 2.5 0
42.5 2.5 0
43.5 2.5 0
44.5 2.5 0
45.5 2.5 0
46.5 2.5 0
47.5 2.5 0
48.5 2.5 0
49.5 2.5 0
0 3 0
1 3 0
2 3 0
3 3 0
4 3 0
5 3 0
6 3 0
7 3 0
8 3 0
9 3 0
10 3 0
11 3 0
12 3 0
13 3 0
14 3 0
15 3 0
16 3 0
17 3 0
18 3 0
19 3 0
20 3 0
21 3 0
22 3 0
23 3 0
24 3 0
25 3 0
26 3 0
27 3 0
28 3 0
29 3 0
30 3 0
31 3 0
32 3 0
33 3 0
34 3 0
35 3 0
36 3 0
37 3 0
38 3 0
39 3 0
40 3 0
41 3 0
42 3 0
43 3 0
44 3 0
45 3 0
46 3 0
47 3 0
48 3 0
49 3 0
50 3 0
0.5 3.5 0
1.5 3.5 0
2.5 3.5 0
3.5 3.5 0
4.5 3.5 0
5.5 3.5 0
6.5 3.5 0
7.5 3.5 0
8.5 3.5 0
9.5 3.5 0
10.5 3.5 0
11.5 3.5 0
12.5 3.5 0
13.5 3.5 0
14.5 3.5 0
15.5 3.5 0
16.5 3.5 0
17.5 3.5 0
18.5 3.5 0
19.5 3.5 0
20.5 3.5 0
21.5 3.5 0
22.5 3.5 0
23.5 3.5 0
24.5 3.5 0
25.5 3.5 0
26.5 3.5 0
27.5 3.5 0
28.5 3.5 0
29.5 3.5 0
30.5 3.5 0
31.5 3.5 0
32.5 3.5 0
33.5 3.5 0
34.5 3.5 0
35.5 3.5 0
36.5 3.5 0
37.5 3.5 0
38.5 3.5 0
39.5 3.5 0
40.5 3.5 0
41.5 3.5 0
42.5 3.5 0
43.5 3.5 0
44.5 3.5 0
45.5 3.5 0
46.5 3.5 0
47.5 3.5 0
48.5 3.5 0
49.5 3.5 0
0 4 0
1 4 0
2 4 0
3 4 0
4 4 0
5 4 0
6 4 0
7 4 0
8 4 0
9 4 0
10 4 0
11 4 0
12 4 0
13 4 0
14 4 0
15 4 0
16 4 0
17 4 0
18 4 0
19 4 0
20 4 0
21 4 0
22 4 0
23 4 0
24 4 0
25 4 0
26 4 0
27 4 0
28 4 0
29 4 0
30 4 0
31 4 0
32 4 0
33 4 0
34 4 0
35 4 0
36 4 0
37 4 0
38 4 0
39 4 0
40 4 0
41 4 0
42 4 0
43 4 0
44 4 0
45 4 0
46 4 0
47 4 0
48 4 0
49 4 0
50 4 0
0.5 4.5 0
1.5 4.5 0
2.5 4.5 0
3.5 4.5 0
4.5 4.5 0
5.5 4.5 0
6.5 4.5 0
7.5 4.5 0
8.5 4.5 0
9.5 4.5 0
10.5 4.5 0
11.5 4.5 0
12.5 4.5 0
13.5 4.5 0
14.5 4.5 0
15.5 4.5 0
16.5 4.5 0
17.5 4.5 0
18.5 4.5 0
19.5 4.5 0
20.5 4.5 0
21.5 4.5 0
22.5 4.5 0
23.5 4.5 0
24.5 4.5 0
25.5 4.5 0
26.5 4.5 0
27.5 4.5 0
28.5 4.5 0
29.5 4.5 0
30.5 4.5 0
31.5 4.5 0
32.5 4.5 0
33.5 4.5 0
34.5 4.5 0
35.5 4.5 0
36.5 4.5 0
37.5 4.5 0
38.5 4.5 0
39.5 4.5 0
40.5 4.5 0
41.5 4.5 0
42.5 4.5 0
43.5 4.5 0
44.5 4.5 0
45.5 4.5 0
46.5 4.5 0
47.5 4.5 0
48.5 4.5 0
49.5 4.5 0
0 5 0
1 5 0
2 5 0
3 5 0
4 5 0
5 5 0
6 5 0
7 5 0
8 5 0
9 5 0
10 5 0
11 5 0
12 5 0
13 5 0
14 5 0
15 5 0
16 5 0
17 5 0
18 5 0
19 5 0
20 5 0
21 5 0
22 5 0
23 5 0
24 5 0
25 5 0
26 5 0
27 5 0
28 5 0
29 5 0
30 5 0
31 5 0
32 5 0
33 5 0
34 5 0
35 5 0
36 5 0
37 5 0
38 5 0
39 5 0
40 5 0
41 5 0
42 5 0
43 5 0
44 5 0
45 5 0
46 5 0
47 5 0
48 5 0
49 5 0
50 5 0
0.5 5.5 0
1.5 5.5 0
2.5 5.5 0
3.5 5.5 0
4.5 5.5 0
5.5 5.5 0
6.5 5.5 0
7.5 5.5 0
8.5 5.5 0
9.5 5.5 0
10.5 5.5 0
11.5 5.5 0
12.5 5.5 0
13.5 5.5 0
14.5 5.5 0
15.5 5.5 0
16.5 5.5 0
17.5 5.5 0
18.5 5.5 0
19.5 5.5 0
20.5 5.5 0
21.5 5.5 0
22.5 5.5 0
23.5 5.5 0
24.5 5.5 0
25.5 5.5 0
26.5 5.5 0
27.5 5.5 0
28.5 5.5 0
29.5 5.5 0
30.5 5.5 0
31.5 5.5 0
32.5 5.5 0
33.5 5.5 0
34.5 5.5 0
35.5 5.5 0
36.5 5.5 0
37.5 5.5 0
38.5 5.5 0
39.5 5.5 0
40.5 5.5 0
41.5 5.5 0
42.5 5.5 0
43.5 5.5 0
44.5 5.5 0
45.5 5.5 0
46.5 5.5 0
47.5 5.5 0
48.5 5.5 0
49.5 5.5 0
0 6 0
1 6 0
2 6 0
3 6 0
4 6 0
5 6 0
6 6 0
7 6 0
8 6 0
9 6 0
10 6 0
11 6 0
12 6 0
13 6 0
14 6 0
15 6 0
16 6 0
17 6 0
18 6 0
19 6 0
20 6 0
21 6 0
22 6 0
23 6 0
24 6 0
25 6 0
26 6 0
27 6 0
28 6 0
29 6 0
30 6 0
31 6 0
32 6 0
33 6 0
34 6 0
35 6 0
36 6 0
37 6 0
38 6 0
39 6 0
40 6 0
41 6 0
42 6 0
43 6 0
44 6 0
45 6 0
46 6 0
47 6 0
48 6 0
49 6 0
50 6 0
0.5 6.5 0
1.5 6.5 0
2.5 6.5 0
3.5 6.5 0
4.5 6.5 0
5.5 6.5 0
6.5 6.5 0
7.5 6.5 0
8.5 6.5 0
9.5 6.5 0
10.5 6.5 0
11.5 6.5 0
12.5 6.5 0
13.5 6.5 0
14.5 6.5 0
15.5 6.5 0
16.5 6.5 0
17.5 6.5 0
18.5 6.5 0
19.5 6.5 0
20.5 6.5 0
21.5 6.5 0
22.5 6.5 0
23.5 6.5 0
24.5 6.5 0
25.5 6.5 0
26.5 6.5 0
27.5 6.5 0
28.5 6.5 0
29.5 6.5 0
30.5 6.5 0
31.5 6.5 0
32.5 6.5 0
33.5 6.5 0
34.5 6.5 0
35.5 6.5 0
36.5 6.5 0
37.5 6.5 0
38.5 6.5 0
39.5 6.5 0
40.5 6.5 0
41.5 6.5 0
42.5 6.5 0
43.5 6.5 0
44.5 6.5 0
45.5 6.5 0
46.5 6.5 0
47.5 6.5 0
48.5 6.5 0
49.5 6.5 0
0 7 0
1 7 0
2 7 0
3 7 0
4 7 0
5 7 0
6 7 0
7 7 0
8 7 0
9 7 0
10 7 0
11 7 0
12 7 0
13 7 0
14 7 0
15 7 0
16 7 0
17 7 0
18 7 0
19 7 0
20 7 0
21 7 0
22 7 0
23 7 0
24 7 0
25 7 0
26 7 0
27 7 0
28 7 0
29 7 0
30 7 0
31 7 0
32 7 0
33 7 0
34 7 0
35 7 0
36 7 0
37 7 0
38 7 0
39 7 0
40 7 0
41 7 0
42 7 0
43 7 0
44 7 0
45 7 0
46 7 0
47 7 0
48 7 0
49 7 0
50 7 0
0.5 7.5 0
1.5 7.5 0
2.5 7.5 0
3.5 7.5 0
4.5 7.5 0
5.5 7.5 0
6.5 7.5 0
7.5 7.5 0
8.5 7.5 0
9.5 7.5 0
10.5 7.5 0
11.5 7.5 0
12.5 7.5 0
13.5 7.5 0
14.5 7.5 0
15.5 7.5 0
16.5 7.5 0
17.5 7.5 0
18.5 7.5 0
19.5 7.5 0
20.5 7.5 0
21.5 7.5 0
22.5 7.5 0
23.5 7.5 0
24.5 7.5 0
25.5 7.5 0
26.5 7.5 0
27.5 7.5 0
28.5 7.5 0
29.5 7.5 0
30.5 7.5 0
31.5 7.5 0
32.5 7.5 0
33.5 7.5 0
34.5 7.5 0
35.5 7.5 0
36.5 7.5 0
37.5 7.5 0
38.5 7.5 0
39.5 7.5 0
40.5 7.5 0
41.5 7.5 0
42.5 7.5 0
43.5 7.5 0
44.5 7.5 0
45.5 7.5 0
46.5 7.5 0
47.5 7.5 0
48.5 7.5 0
49.5 7.5 0
0 8 0
1 8 0
2 8 0
3 8 0
4 8 0
5 8 0
6 8 0
7 8 0
8 8 0
9 8 0
10 8 0
11 8 0
12 8 0
13 8 0
14 8 0
15 8 0
16 8 0
17 8 0
18 8 0
19 8 0
20 8 0
21 8 0
22 8 0
23 8 0
24 8 0
25 8 0
26 8 0
27 8 0
28 8 0
29 8 0
30 8 0
31 8 0
32 8 0
33 8 0
34 8 0
35 8 0
36 8 0
37 8 0
38 8 0
39 8 0
40 8 0
41 8 0
42 8 0
43 8 0
44 8 0
45 8 0
46 8 0
47 8 0
48 8 0
49 8 0
50 8 0
0.5 8.5 0
1.5 8.5 0
2.5 8.5 0
3.5 8.5 0
4.5 8.5 0
5.5 8.5 0
6.5 8.5 0
7.5 8.5 0
8.5 8.5 0
9.5 8.5 0
10.5 8.5 0
11.5 8.5 0
12.5 8.5 0
13.5 8.5 0
14.5 8.5 0
15.5 8.5 0
16.5 8.5 0
17.5 8.5 0
18.5 8.5 0
19.5 8.5 0
20.5 8.5 0
21.5 8.5 0
22.5 8.5 0
23.5 8.5 0
24.5 8.5 0
25.5 8.5 0
26.5 8.5 0
27.5 8.5 0
28.5 8.5 0
29.5 8.5 0
30.5 8.5 0
31.5 8.5 0
32.5 8.5 0
33.5 8.5 0
34.5 8.5 0
35.5 8.5 0
36.5 8.5 0
37.5 8.5 0
38.5 8.5 0
39.5 8.5 0
40.5 8.5 0
41.5 8.5 0
42.5 8.5 0
43.5 8.5 0
44.5 8.5 0
45.5 8.5 0
46.5 8.5 0
47.5 8.5 0
48.5 8.5 0
49.5 8.5 0
0 9 0
1 9 0
2 9 0
3 9 0
4 9 0
5 9 0
6 9 0
7 9 0
8 9 0
9 9 0
10 9 0
11 9 0
12 9 0
13 9 0
14 9 0
15 9 0
16 9 0
17 9 0
18 9 0
19 9 0
20 9 0
21 9 0
22 9 0
23 9 0
24 9 0
25 9 0
26 9 0
27 9 0
28 9 0
29 9 0
30 9 0
31 9 0
32 9 0
33 9 0
34 9 0
35 9 0
36 9 0
37 9 0
38 9 0
39 9 0
40 9 0
41 9 0
42 9 0
43 9 0
44 9 0
45 9 0
46 9 0
47 9 0
48 9 0
49 9 0
50 9 0
0.5 9.5 0
1.5 9.5 0
2.5 9.5 0
3.5 9.5 0
4.5 9.5 0
5.5 9.5 0
6.5 9.5 0
7.5 9.5 0
8.5 9.5 0
9.5 9.5 0
10.5 9.5 0
11.5 9.5 0
12.5 9.5 0
13.5 9.5 0
14.5 9.5 0
15.5 9.5 0
16.5 9.5 0
17.5 9.5 0
18.5 9.5 0
19.5 9.5 0
20.5 9.5 0
21.5 9.5 0
22.5 9.5 0
23.5 9.5 0
24.5 9.5 0
25.5 9.5 0
26.5 9.5 0
27.5 9.5 0
28.5 9.5 0
29.5 9.5 0
30.5 9.5 0
31.5 9.5 0
32.5 9.5 0
33.5 9.5 0
34.5 9.5 0
35.5 9.5 0
36.5 9.5 0
37.5 9.5 0
38.5 9.5 0
39.5 9.5 0
40.5 9.5 0
41.5 9.5 0
42.5 9.5 0
43.5 9.5 0
44.5 9.5 0
45.5 9.5 0
46.5 9.5 0
47.5 9.5 0
48.5 9.5 0
49.5 9.5 0
0 10 0
1 10 0
2 10 0
3 10 0
4 10 0
5 10 0
6 10 0
7 10 0
8 10 0
9 10 0
10 10 0
11 10 0
12 10 0
13 10 0
14 10 0
15 10 0
16 10 0
17 10 0
18 10 0
19 10 0
20 10 0
21 10 0
22 10 0
23 10 0
24 10 0
25 10 0
26 10 0
27 10 0
28 10 0
29 10 0
30 10 0
31 10 0
32 10 0
33 10 0
34 10 0
35 10 0
36 10 0
37 10 0
38 10 0
39 10 0
40 10 0
41 10 0
42 10 0
43 10 0
44 10 0
45 10 0
46 10 0
47 10 0
48 10 0
49 10 0
50 10 0
0.5 10.5 0
1.5 10.5 0
2.5 10.5 0
3.5 10.5 0
4.5 10.5 0
5.5 10.5 0
6.5 10.5 0
7.5 10.5 0
8.5 10.5 0
9.5 10.5 0
10.5 10.5 0
11.5 10.5 0
12.5 10.5 0
13.5 10.5 0
14.5 10.5 0
15.5 10.5 0
16.5 10.5 0
17.5 10.5 0
18.5 10.5 0
19.5 10.5 0
20.5 10.5 0
21.5 10.5 0
22.5 10.5 0
23.5 10.5 0
24.5 10.5 0
25.5 10.5 0
26.5 10.5 0
27.5 10.5 0
28.5 10.5 0
29.5 10.5 0
30.5 10.5 0
31.5 10.5 0
32.5 10.5 0
33.5 10.5 0
34.5 10.5 0
35.5 10.5 0
36.5 10.5 0
37.5 10.5 0
38.5 10.5 0
39.5 10.5 0
40.5 10.5 0
41.5 10.5 0
42.5 10.5 0
43.5 10.5 0
44.5 10.5 0
45.5 10.5 0
46.5 10.5 0
47.5 10.5 0
48.5 10.5 0
49.5 10.5 0
0 11 0
1 11 0
2 11 0
3 11 0
[...]
POINT_DATA 5101
VECTORS velocity float
0.108998 0.108998 0.988048
0.325828 -0.00867495 0.945389
0.511327 -0.17012 0.84238
0.631943 -0.351317 0.690814
0.677937 -0.528024 0.51146
0.653539 -0.68278 0.326647
0.571442 -0.805864 0.155037
0.447669 -0.894151 0.00932114
0.297809 -0.948968 -0.103776
0.135095 -0.973923 -0.182273
-0.0300736 -0.973328 -0.227439
-0.189864 -0.951374 -0.242568
-0.338568 -0.911863 -0.232116
-0.472238 -0.858219 -0.201124
-0.588437 -0.793582 -0.154822
-0.68606 -0.72087 -0.0983272
-0.76517 -0.642798 -0.0364028
-0.826815 -0.561838 0.0267342
-0.8728 -0.480161 0.0875534
-0.905428 -0.399584 0.143292
-0.927234 -0.321534 0.191974
-0.940732 -0.247042 0.232366
-0.948216 -0.176778 0.263886
-0.951621 -0.111097 0.286487
-0.952456 -0.0501191 0.300524
-0.951808 0.006207 0.306631
-0.950385 0.0580285 0.305616
-0.948595 0.105537 0.298377
-0.946633 0.148928 0.285844
-0.944556 0.188382 0.268935
-0.942352 0.224061 0.248533
-0.939985 0.25611 0.22547
-0.937421 0.284673 0.200507
-0.934648 0.309908 0.174326
-0.93167 0.33201 0.147515
-0.928497 0.351228 0.120554
-0.925122 0.367897 0.0938112
-0.921496 0.382471 0.0675412
-0.917487 0.395553 0.0419048
-0.912861 0.407916 0.0170014
-0.907265 0.4205 -0.00706965
-0.900242 0.434346 -0.0301112
-0.891291 0.450477 -0.0516819
-0.879961 0.469723 -0.0709084
-0.865972 0.492593 -0.0862829
-0.849249 0.519291 -0.095465
-0.829756 0.549959 -0.0951318
-0.80689 0.585107 -0.0811122
-0.778224 0.626042 -0.0493843
-0.73933 0.673343 0.00064778
-0.706726 0.706726 0.0328228
0.171128 0.171128 0.970273
0.399428 0.0373898 0.916002
0.580974 -0.136836 0.802338
0.689837 -0.327341 0.645734
0.720671 -0.510367 0.46921
0.681818 -0.669592 0.294571
0.588486 -0.796615 0.138162
0.457389 -0.889212 0.00985904
0.303597 -0.948911 -0.0859999
0.139368 -0.97896 -0.149044
-0.0258405 -0.983062 -0.181443
-0.184919 -0.964825 -0.186864
-0.33265 -0.92764 -0.16979
-0.465388 -0.874742 -0.135061
-0.580858 -0.809283 -0.0875542
-0.678017 -0.734352 -0.031938
-0.756918 -0.65293 0.0275232
-0.818547 -0.567794 0.0871254
-0.86461 -0.481416 0.143834
-0.897291 -0.395868 0.195338
-0.918995 -0.312768 0.240048
-0.932114 -0.233268 0.277036
-0.938834 -0.158088 0.30594
-0.941012 -0.0875859 0.326841
-0.940121 -0.0218447 0.34014
-0.93725 0.0392293 0.346443
-0.933156 0.0958176 0.346466
-0.928333 0.148116 0.340968
-0.923099 0.196281 0.3307
-0.917662 0.240412 0.316385
-0.912181 0.280543 0.298699
-0.906797 0.316673 0.278277
-0.901641 0.348799 0.255702
-0.896833 0.376954 0.231509
-0.892465 0.401244 0.20618
-0.888576 0.42188 0.180136
-0.885139 0.439198 0.153733
-0.882035 0.453675 0.127256
-0.879039 0.465945 0.100919
-0.875806 0.476819 0.0748777
-0.871857 0.487277 0.0492647
-0.866588 0.498434 0.0242686
-0.85932 0.511438 0.000274332
-0.849382 0.527322 -0.0219496
-0.836217 0.546861 -0.0410356
-0.819423 0.570565 -0.0547778
-0.798588 0.598886 -0.0599394
-0.7727 0.6326 -0.0524581
-0.73961 0.672391 -0.0294406
-0.707091 0.707091 0.00677495
-0.00867495 0.325828 0.945389
0.234935 0.234935 0.943192
0.468068 0.0877048 0.879329
0.644169 -0.0989931 0.75845
0.741204 -0.298572 0.601225
0.75861 -0.487927 0.431785
0.708284 -0.652107 0.270351
0.606949 -0.783954 0.130495
0.471188 -0.881819 0.0194253
0.315149 -0.947115 -0.0604577
0.150043 -0.982551 -0.109912
-0.0154947 -0.991181 -0.131604
-0.17487 -0.976068 -0.129273
-0.323107 -0.94027 -0.107206
-0.456597 -0.886924 -0.0698932
-0.572967 -0.819289 -0.0217802
-0.671011 -0.740716 0.0329211
-0.750606 -0.654537 0.0903947
-0.812586 -0.563908 0.147351
-0.858545 -0.471647 0.201122
-0.8906 -0.380109 0.249698
-0.911126 -0.291113 0.291724
-0.922516 -0.205937 0.326427
-0.926984 -0.125369 0.353529
-0.926443 -0.0497969 0.373126
-0.922445 0.0206749 0.385575
-0.916184 0.0861114 0.391396
-0.908552 0.146643 0.391189
-0.900203 0.202388 0.385582
-0.891632 0.253408 0.375203
-0.883232 0.2997 0.360666
-0.875334 0.341224 0.342573
-0.868209 0.377946 0.321512
-0.862061 0.40989 0.298063
-0.85701 0.437177 0.272783
-0.853078 0.460047 0.2462
-0.850187 0.478863 0.218798
-0.848161 0.49411 0.190992
-0.846732 0.506396 0.163118
-0.845536 0.516462 0.135412
-0.844097 0.525199 0.108013
-0.841811 0.53366 0.0809957
-0.837946 0.543029 0.0544563
-0.83168 0.554515 0.0286763
-0.822197 0.569186 0.00433414
-0.808803 0.587828 -0.0172358
-0.790966 0.610929 -0.0337393
-0.768163 0.638893 -0.0417252
-0.739481 0.672143 -0.0373095
-0.706931 0.706931 -0.0222694
-0.673343 0.73933 0.00064778
0.0373898 0.399428 0.916002
0.297364 0.297364 0.907276
0.531751 0.13677 0.835784
0.69999 -0.0610734 0.711536
0.785098 -0.26866 0.558071
0.790884 -0.46386 0.39917
0.731677 -0.633055 0.252767
0.624712 -0.770004 0.129722
0.48592 -0.873301 0.0350281
0.328399 -0.944051 -0.0303513
0.162418 -0.984382 -0.0679193
-0.00402294 -0.99674 -0.0805848
-0.164633 -0.983723 -0.0720049
-0.314463 -0.948145 -0.0461881
-0.449737 -0.893131 -0.00724534
-0.567821 -0.822141 0.0407862
-0.667237 -0.738878 0.0940928
-0.747655 -0.647105 0.149223
-0.80979 -0.550406 0.203209
-0.85521 -0.451968 0.253656
-0.886069 -0.354419 0.298777
-0.904821 -0.259761 0.337377
-0.913951 -0.169375 0.368791
-0.915773 -0.0841081 0.392793
-0.912303 -0.00438853 0.409492
-0.905207 0.0696419 0.419227
-0.895804 0.138001 0.422481
-0.885125 0.200761 0.419821
-0.873973 0.257979 0.411848
-0.862995 0.309666 0.399182
-0.852722 0.355805 0.38245
-0.843579 0.396387 0.362287
-0.835877 0.431474 0.339324
-0.829792 0.461231 0.314183
-0.825359 0.485955 0.287455
-0.822473 0.506063 0.259689
-0.820913 0.522085 0.231365
-0.820366 0.534641 0.202875
-0.820438 0.544454 0.174502
-0.820649 0.55236 0.146401
-0.820406 0.559345 0.118604
-0.818979 0.566551 0.0910712
-0.815499 0.575229 0.0638183
-0.809029 0.586596 0.0371186
-0.798676 0.601646 0.0117647
-0.783727 0.621015 -0.0106137
-0.763666 0.645037 -0.0272339
-0.73799 0.673935 -0.0344028
-0.706751 0.706751 -0.0316995
-0.672391 0.73961 -0.0294406
-0.17012 0.511327 0.84238
0.0877048 0.468068 0.879329
0.356096 0.356096 0.863939
0.588508 0.184034 0.787267
0.747728 -0.0230777 0.663604
0.821971 -0.237646 0.517579
0.818351 -0.438481 0.371533
0.752501 -0.612944 0.240918
0.641494 -0.755291 0.134238
0.500396 -0.864062 0.0547782
0.341349 -0.939933 0.00249438
0.1739 -0.984457 -0.0245753
0.00565853 -0.999551 -0.0294175
-0.157153 -0.987452 -0.0155254
-0.309403 -0.950837 0.01339
-0.446993 -0.892932 0.0535686
-0.566932 -0.817509 0.101326
-0.667463 -0.728718 0.153178
-0.748104 -0.630806 0.205974
-0.809553 -0.527795 0.257015
-0.853462 -0.423206 0.304137
-0.88212 -0.319883 0.345743
-0.898128 -0.219946 0.380776
-0.904108 -0.124845 0.408659
-0.902509 -0.0354684 0.429207
-0.89548 0.0477069 0.442538
-0.884828 0.12448 0.448981
-0.872034 0.194797 0.449011
-0.858296 0.258664 0.443194
-0.844587 0.316089 0.432158
-0.831699 0.367077 0.416571
-0.820259 0.411663 0.397126
-0.810718 0.44996 0.37453
-0.803336 0.482201 0.349476
-0.798171 0.508758 0.322628
-0.795099 0.530126 0.294592
-0.793847 0.546903 0.265902
-0.794043 0.559757 0.236996
-0.795242 0.569424 0.208196
-0.796938 0.576718 0.179683
-0.798539 0.582571 0.151481
-0.799328 0.588071 0.123482
-0.798435 0.594454 0.0955306
-0.79486 0.603015 0.0676072
-0.787577 0.614912 0.0400831
-0.775682 0.630968 0.0140325
-0.758523 0.651592 -0.0084354
-0.735662 0.676917 -0.024187
-0.706756 0.706756 -0.0314952
-0.672143 0.739481 -0.0373095
-0.626042 0.778224 -0.0493843
-0.136836 0.580974 0.802338
0.13677 0.531751 0.835784
0.410142 0.410142 0.814596
0.637904 0.228843 0.735329
0.787898 0.0142645 0.61564
0.852773 -0.206318 0.479803
0.841818 -0.412544 0.348066
0.771081 -0.592391 0.233467
0.657043 -0.740252 0.142554
0.513866 -0.854378 0.0773309
0.35291 -0.934923 0.0370649
0.18325 -0.982872 0.0195314
0.0123674 -0.999687 0.0217624
-0.153354 -0.987343 0.0404524
-0.308431 -0.948506 0.0721602
-0.448342 -0.886637 0.11342
-0.569738 -0.805934 0.160837
-0.670654 -0.711066 0.211207
-0.750574 -0.606778 0.261647
-0.810298 -0.497487 0.309714
-0.851654 -0.386967 0.35347
-0.877116 -0.278199 0.3915
-0.889449 -0.173372 0.422874
-0.891424 -0.0739849 0.447089
-0.885637 0.0190095 0.46399
-0.874402 0.105048 0.473694
-0.859726 0.183824 0.476528
-0.84331 0.255189 0.472977
-0.826572 0.319079 0.463646
-0.810674 0.375496 0.449232
-0.796529 0.424516 0.430497
-0.784787 0.466321 0.408233
-0.775822 0.501235 0.383228
-0.769733 0.529727 0.356232
-0.76637 0.552396 0.327926
-0.765399 0.569932 0.298901
-0.766364 0.583078 0.269642
-0.768745 0.59261 0.240509
-0.771985 0.599348 0.211708
-0.775473 0.604195 0.183276
-0.778498 0.608188 0.155074
-0.780205 0.61253 0.126839
-0.779571 0.618546 0.0983339
-0.775481 0.627524 0.0695883
-0.766872 0.640476 0.0412064
-0.752905 0.657965 0.0146893
-0.733048 0.680137 -0.0074471
-0.70692 0.70692 -0.0229628
-0.673935 0.73799 -0.0344028
-0.6326 0.7727 -0.0524581
-0.351317 0.631943 0.690814
-0.0989931 0.644169 0.75845
0.184034 0.588508 0.787267
0.458757 0.458757 0.760975
0.680074 0.270258 0.681513
0.821229 0.0498636 0.568415
0.878318 -0.175747 0.444601
0.861813 -0.386952 0.327942
0.787519 -0.572061 0.229259
0.671076 -0.725323 0.153505
0.525788 -0.844511 0.101731
0.362438 -0.929165 0.0727317
0.189893 -0.979708 0.0641323
0.0157568 -0.997206 0.0730173
-0.153224 -0.983494 0.0962429
-0.311092 -0.941366 0.130579
-0.452892 -0.874661 0.17279
-0.574995 -0.7881 0.219724
-0.67536 -0.686899 0.268438
-0.753571 -0.576255 0.316325
-0.810627 -0.460881 0.361209
-0.848566 -0.344705 0.401391
-0.870037 -0.230774 0.435636
-0.877946 -0.121329 0.463131
-0.8752 -0.0179479 0.483428
-0.864565 0.0782827 0.496386
-0.848588 0.166635 0.502127
-0.829559 0.246643 0.500998
-0.809486 0.318047 0.493536
-0.790057 0.380769 0.480442
-0.772609 0.434899 0.462534
-0.758095 0.480703 0.4407
-0.747069 0.518624 0.415834
-0.739697 0.549266 0.388787
-0.735815 0.57336 0.360326
-0.735014 0.591712 0.331107
-0.736736 0.605163 0.301657
-0.740362 0.614556 0.272369
-0.745252 0.620742 0.243474
-0.750748 0.624615 0.215019
-0.756129 0.627179 0.186855
-0.760546 0.629602 0.158654
-0.762974 0.633218 0.130023
-0.76224 0.63941 0.10072
-0.757151 0.649375 0.0709591
-0.746683 0.66387 0.0417235
-0.730135 0.683139 0.014957
-0.707089 0.707089 -0.0070429
-0.676917 0.735662 -0.024187
-0.638893 0.768163 -0.0417252
-0.585107 0.80689 -0.0811122
-0.327341 0.689837 0.645734
-0.0610734 0.69999 0.711536
0.228843 0.637904 0.735329
0.501572 0.501572 0.704877
0.715455 0.307661 0.62727
0.848529 0.0829563 0.522606
0.899351 -0.146699 0.411882
0.878778 -0.362347 0.31057
0.801912 -0.55242 0.227529
0.683424 -0.7108 0.166416
0.535863 -0.834615 0.127549
0.369658 -0.922708 0.109371
0.193722 -0.974938 0.109396
0.0160142 -0.992061 0.124736
-0.156201 -0.975906 0.152347
-0.316451 -0.929561 0.18914
-0.459412 -0.857372 0.232063
-0.581319 -0.764641 0.278196
-0.680211 -0.657091 0.324877
-0.755883 -0.540262 0.369808
-0.809567 -0.419031 0.411112
-0.843478 -0.297377 0.447339
-0.860377 -0.178379 0.477423
-0.863257 -0.0643648 0.500645
-0.855158 0.0429018 0.516589
-0.839079 0.142074 0.52513
-0.817916 0.232151 0.526422
-0.794378 0.312467 0.520892
-0.770868 0.382707 0.509213
-0.749353 0.442902 0.492248
-0.731258 0.493397 0.470979
-0.71743 0.534797 0.446416
-0.70817 0.567891 0.419518
-0.703322 0.593588 0.391142
-0.702402 0.612849 0.362006
-0.704737 0.626635 0.332677
-0.709583 0.635877 0.303566
-0.716192 0.641476 0.274912
-0.723829 0.644344 0.246766
-0.73173 0.645465 0.218966
-0.739033 0.645984 0.191141
-0.744706 0.647235 0.162789
-0.747534 0.650678 0.133458
-0.746218 0.657678 0.103041
-0.739562 0.669217 0.0720949
-0.726673 0.685695 0.0420676
-0.707026 0.707026 0.0150813
-0.680137 0.733048 -0.0074471
-0.645037 0.763666 -0.0272339
-0.598886 0.798588 -0.0599394
-0.528024 0.677937 0.51146
-0.298572 0.741204 0.601225
-0.0230777 0.747728 0.663604
0.270258 0.680074 0.681513
0.538563 0.538563 0.647996
0.744688 0.340821 0.573831
0.870635 0.11315 0.478739
0.916566 -0.119609 0.381577
0.893114 -0.339107 0.295556
0.814381 -0.533735 0.227837
0.694028 -0.696824 0.181002
0.543982 -0.824702 0.154755
0.374547 -0.915445 0.147224
0.194926 -0.968368 0.155778
0.0136289 -0.984029 0.177487
-0.161471 -0.964422 0.209328
-0.323421 -0.913097 0.248299
-0.466671 -0.835006 0.291519
-0.587499 -0.736022 0.336329
-0.684166 -0.622263 0.380402
-0.75673 -0.499445 0.421799
-0.806612 -0.37246 0.458966
-0.836103 -0.24526 0.490692
-0.847969 -0.120981 0.516054
-0.845236 -0.00217158 0.534388
-0.831119 0.109022 0.545304
-0.808992 0.210796 0.548723
-0.782296 0.301777 0.544925
-0.754323 0.381142 0.534536
-0.727921 0.448694 0.518464
-0.705243 0.504811 0.497794
-0.687621 0.5503 0.473654
-0.6756 0.586218 0.447116
-0.669085 0.613728 0.419123
-0.667533 0.633998 0.390445
-0.670151 0.648143 0.361674
-0.676054 0.657203 0.333219
-0.68436 0.662149 0.305304
-0.694225 0.663921 0.277956
-0.704812 0.66351 0.250985
-0.715213 0.662045 0.223979
-0.724366 0.660864 0.196349
-0.731012 0.661491 0.167484
-0.733755 0.665455 0.137019
-0.731237 0.673969 0.10516
-0.72237 0.687649 0.0729424
-0.706476 0.706476 0.0422164
-0.683139 0.730135 0.014957
-0.651592 0.758523 -0.0084354
-0.610929 0.790966 -0.0337393
-0.549959 0.829756 -0.0951318
-0.510367 0.720671 0.46921
-0.26866 0.785098 0.558071
0.0142645 0.787898 0.61564
0.307661 0.715455 0.62727
0.570016 0.570016 0.591746
0.768534 0.369816 0.522102
0.888374 0.140351 0.437142
0.930598 -0.0946453 0.353595
0.905194 -0.317382 0.282652
0.825083 -0.516079 0.230002
0.70293 -0.68335 0.197285
0.550196 -0.814596 0.183625
0.377279 -0.907068 0.186785
0.193902 -0.959596 0.203905
0.00927132 -0.972693 0.23191
-0.168111 -0.948715 0.267727
-0.330928 -0.89183 0.308423
-0.473598 -0.807638 0.35132
-0.592625 -0.702488 0.394091
-0.686583 -0.582702 0.434812
-0.755768 -0.453965 0.471944
-0.801662 -0.321037 0.504256
-0.826461 -0.187824 0.530739
-0.832803 -0.057659 0.550559
-0.82373 0.0664118 0.563079
-0.802782 0.181533 0.567968
-0.773986 0.285227 0.565324
-0.741605 0.375749 0.555729
-0.709639 0.452359 0.54017
-0.681298 0.515332 0.519871
-0.658685 0.565699 0.496104
-0.642777 0.604891 0.470047
-0.633633 0.634442 0.442711
-0.630686 0.655815 0.4149
-0.633033 0.67033 0.387204
-0.639642 0.679159 0.360003
-0.649482 0.683352 0.333472
-0.661577 0.683895 0.307578
-0.674978 0.681793 0.28207
-0.688694 0.678176 0.256471
-0.701597 0.674397 0.230111
-0.712358 0.672043 0.20225
-0.719479 0.672798 0.172316
-0.721447 0.678122 0.140232
-0.716975 0.688885 0.106696
-0.705206 0.705206 0.0732691
-0.685695 0.726673 0.0420676
-0.657965 0.752905 0.0146893
-0.621015 0.783727 -0.0106137
-0.570565 0.819423 -0.0547778
-0.68278 0.653539 0.326647
-0.487927 0.75861 0.431785
-0.237646 0.821971 0.517579
0.0498636 0.821229 0.568415
0.340821 0.744688 0.573831
0.596432 0.596432 0.537158
0.787798 0.394943 0.472646
0.902508 0.164682 0.397943
0.942007 -0.0717638 0.327829
0.91536 -0.297117 0.271732
0.834208 -0.499318 0.234048
0.710269 -0.670124 0.215526
0.55469 -0.803893 0.214651
0.378186 -0.897032 0.22871
0.191193 -0.947991 0.254476
0.00371065 -0.957434 0.288628
-0.175192 -0.92829 0.328003
-0.338019 -0.865458 0.369763
-0.479379 -0.775145 0.411516
-0.596152 -0.663987 0.451357
-0.687249 -0.538248 0.48783
-0.753071 -0.403343 0.519806
-0.79494 -0.263795 0.546335
-0.814721 -0.123569 0.566534
-0.814797 0.0134617 0.579591
-0.798338 0.143252 0.584923
-0.769564 0.261817 0.582428
-0.733606 0.365913 0.572651
-0.695819 0.45374 0.556737
-0.660852 0.52518 0.536154
-0.631964 0.581451 0.512382
-0.610843 0.624481 0.486718
-0.597858 0.656337 0.460204
-0.592491 0.678909 0.433632
-0.593757 0.693797 0.407552
-0.600486 0.702337 0.382281
-0.611504 0.705668 0.357903
-0.625687 0.704821 0.334279
-0.641949 0.700822 0.311048
-0.659169 0.694815 0.287626
-0.676104 0.688177 0.263239
-0.691312 0.682573 0.237026
-0.703168 0.679845 0.208245
-0.709991 0.68171 0.176592
-0.710295 0.68933 0.142498
-0.703027 0.703027 0.107263
-0.687649 0.72237 0.0729424
-0.66387 0.746683 0.0417235
-0.630968 0.775682 0.0140325
-0.587828 0.808803 -0.0172358
-0.519291 0.849249 -0.095465
-0.669592 0.681818 0.294571
-0.46386 0.790884 0.39917
-0.206318 0.852773 0.479803
0.0829563 0.848529 0.522606
0.369816 0.768534 0.522102
0.618427 0.618427 0.484866
0.803244 0.416615 0.425712
0.913699 0.18641 0.361118
0.951265 -0.0507517 0.304171
0.923918 -0.278066 0.262783
0.841978 -0.483105 0.240174
0.716264 -0.656652 0.236165
0.557766 -0.791932 0.248477
0.377719 -0.884532 0.273736
0.187438 -0.932676 0.308194
-0.00226034 -0.937419 0.348197
-0.181874 -0.902459 0.3905
-0.343966 -0.833471 0.43245
-0.483552 -0.737119 0.472053
-0.597981 -0.620031 0.507918
-0.686411 -0.488085 0.539086
-0.749102 -0.346198 0.564795
-0.786868 -0.198666 0.584269
-0.800958 -0.0498773 0.59664
-0.793491 0.0950611 0.601111
-0.768173 0.230379 0.597357
-0.730584 0.350662 0.585903
-0.687479 0.452283 0.568165
-0.645328 0.534219 0.546042
-0.609003 0.597726 0.521382
-0.581271 0.645332 0.495652
-0.563044 0.67984 0.469892
-0.553978 0.703743 0.444808
-0.553067 0.719033 0.420843
-0.55905 0.727256 0.398197
-0.570633 0.729645 0.376825
-0.586556 0.727262 0.356429
-0.605583 0.721149 0.336472
-0.626427 0.712465 0.3162
-0.647666 0.702631 0.294684
-0.667679 0.693403 0.270919
-0.684658 0.686804 0.244015
-0.696731 0.684828 0.213487
-0.702199 0.688967 0.179556
-0.699807 0.699807 0.143318
-0.688885 0.716975 0.106696
-0.669217 0.739562 0.0720949
-0.640476 0.766872 0.0412064
-0.601646 0.798676 0.0117647
-0.546861 0.836217 -0.0410356
-0.805864 0.571442 0.155037
-0.652107 0.708284 0.270351
-0.438481 0.818351 0.371533
-0.175747 0.878318 0.444601
0.11315 0.870635 0.478739
0.394943 0.787798 0.472646
0.636647 0.636647 0.435157
0.815546 0.4353 0.381311
0.922483 0.205899 0.326544
0.958748 -0.0312501 0.282535
0.931144 -0.259787 0.255892
0.848641 -0.466855 0.248707
0.721209 -0.642164 0.259773
0.55982 -0.777755 0.285829
0.376414 -0.868464 0.32262
0.183305 -0.9125 0.365708
-0.00791556 -0.911571 0.411067
-0.187523 -0.870292 0.455442
-0.3484 -0.79505 0.496501
-0.486142 -0.692687 0.532776
-0.598558 -0.569431 0.56345
-0.684818 -0.43041 0.588023
-0.744615 -0.279903 0.605972
-0.777783 -0.122281 0.616523
-0.784729 0.0367922 0.618746
-0.767675 0.189843 0.612074
-0.731806 0.328696 0.597008
-0.685 0.446907 0.575368
-0.635845 0.541729 0.549755
-0.591343 0.614131 0.522644
-0.555768 0.667297 0.495819
-0.530861 0.70497 0.470324
-0.516629 0.730451 0.446694
-0.512165 0.746268 0.425172
-0.516204 0.754242 0.405775
-0.527406 0.755704 0.388271
-0.544433 0.751728 0.372153
-0.565914 0.743339 0.356635
-0.59037 0.731701 0.340702
-0.616136 0.718282 0.323184
-0.641321 0.704962 0.302878
-0.663849 0.693984 0.27873
-0.681595 0.687658 0.25011
-0.692627 0.687852 0.217089
-0.695477 0.695477 0.180618
-0.68933 0.710295 0.142498
-0.673969 0.731237 0.10516
-0.649375 0.757151 0.0709591
-0.614912 0.787577 0.0400831
-0.569186 0.822197 0.00433414
-0.492593 0.865972 -0.0862829
-0.796615 0.588486 0.138162
-0.633055 0.731677 0.252767
-0.412544 0.841818 0.348066
-0.146699 0.899351 0.411882
0.140351 0.888374 0.437142
0.416615 0.803244 0.425712
0.651696 0.651696 0.388051
0.825258 0.45147 0.339298
0.92927 0.22358 0.294055
0.964746 -0.0127607 0.262874
0.937282 -0.241633 0.25123
0.85447 -0.449713 0.260076
0.725458 -0.625575 0.286995
0.561313 -0.76006 0.32747
0.37484 -0.84738 0.376088
0.179412 -0.885995 0.42758
-0.0127288 -0.878504 0.477565
-0.191888 -0.830501 0.522922
-0.35151 -0.748876 0.561806
-0.487848 -0.640237 0.593381
-0.59899 -0.50994 0.617391
-0.683661 -0.362055 0.633659
-0.740347 -0.200376 0.641666
-0.767389 -0.0302635 0.640467
-0.764526 0.139779 0.629255
-0.735256 0.298635 0.608453
-0.687786 0.435993 0.580397
-0.632886 0.54623 0.548714
-0.580219 0.629436 0.516872
-0.536059 0.68941 0.487191
-0.503265 0.731018 0.4608
-0.482386 0.758564 0.438046
-0.472779 0.775248 0.418893
-0.473332 0.783243 0.403096
-0.482806 0.783999 0.390185
-0.499904 0.778566 0.379383
-0.523202 0.767902 0.369577
-0.551041 0.753128 0.359378
-0.581453 0.735754 0.347245
-0.612166 0.71781 0.331665
-0.640702 0.701821 0.311367
-0.664583 0.690487 0.285583
-0.681591 0.686126 0.254294
-0.690041 0.690041 0.218375
-0.688967 0.702199 0.179556
-0.678122 0.721447 0.140232
-0.657678 0.746218 0.103041
-0.627524 0.775481 0.0695883
-0.586596 0.809029 0.0371186