# vtk DataFile Version 2.0
tmp/0.000.00-10.000.000.001.0096.vtk
ASCII
DATASET UNSTRUCTURED_GRID
POINTS 5101 float
0 0 0
1 0 0
2 0 0
3 0 0
4 0 0
5 0 0
6 0 0
7 0 0
8 0 0
9 0 0
10 0 0
11 0 0
12 0 0
13 0 0
14 0 0
15 0 0
16 0 0
17 0 0
18 0 0
19 0 0
20 0 0
21 0 0
22 0 0
23 0 0
24 0 0
25 0 0
26 0 0
27 0 0
28 0 0
29 0 0
30 0 0
31 0 0
32 0 0
33 0 0
34 0 0
35 0 0
36 0 0
37 0 0
38 0 0
39 0 0
40 0 0
41 0 0
42 0 0
43 0 0
44 0 0
45 0 0
46 0 0
47 0 0
48 0 0
49 0 0
50 0 0
0.5 0.5 0
1.5 0.5 0
2.5 0.5 0
3.5 0.5 0
4.5 0.5 0
5.5 0.5 0
6.5 0.5 0
7.5 0.5 0
8.5 0.5 0
9.5 0.5 0
10.5 0.5 0
11.5 0.5 0
12.5 0.5 0
13.5 0.5 0
14.5 0.5 0
15.5 0.5 0
16.5 0.5 0
17.5 0.5 0
18.5 0.5 0
19.5 0.5 0
20.5 0.5 0
21.5 0.5 0
22.5 0.5 0
23.5 0.5 0
24.5 0.5 0
25.5 0.5 0
26.5 0.5 0
27.5 0.5 0
28.5 0.5 0
29.5 0.5 0
30.5 0.5 0
31.5 0.5 0
32.5 0.5 0
33.5 0.5 0
34.5 0.5 0
35.5 0.5 0
36.5 0.5 0
37.5 0.5 0
38.5 0.5 0
39.5 0.5 0
40.5 0.5 0
41.5 0.5 0
42.5 0.5 0
43.5 0.5 0
44.5 0.5 0
45.5 0.5 0
46.5 0.5 0
47.5 0.5 0
48.5 0.5 0
49.5 0.5 0
0 1 0
1 1 0
2 1 0
3 1 0
4 1 0
5 1 0
6 1 0
7 1 0
8 1 0
9 1 0
10 1 0
11 1 0
12 1 0
13 1 0
14 1 0
15 1 0
16 1 0
17 1 0
18 1 0
19 1 0
20 1 0
21 1 0
22 1 0
23 1 0
24 1 0
25 1 0
26 1 0
27 1 0
28 1 0
29 1 0
30 1 0
31 1 0
32 1 0
33 1 0
34 1 0
35 1 0
36 1 0
37 1 0
38 1 0
39 1 0
40 1 0
41 1 0
42 1 0
43 1 0
44 1 0
45 1 0
46 1 0
47 1 0
48 1 0
49 1 0
50 1 0
0.5 1.5 0
1.5 1.5 0
2.5 1.5 0
3.5 1.5 0
4.5 1.5 0
5.5 1.5 0
6.5 1.5 0
7.5 1.5 0
8.5 1.5 0
9.5 1.5 0
10.5 1.5 0
11.5 1.5 0
12.5 1.5 0
13.5 1.5 0
14.5 1.5 0
15.5 1.5 0
16.5 1.5 0
17.5 1.5 0
18.5 1.5 0
19.5 1.5 0
20.5 1.5 0
21.5 1.5 0
22.5 1.5 0
23.5 1.5 0
24.5 1.5 0
25.5 1.5 0
26.5 1.5 0
27.5 1.5 0
28.5 1.5 0
29.5 1.5 0
30.5 1.5 0
31.5 1.5 0
32.5 1.5 0
33.5 1.5 0
34.5 1.5 0
35.5 1.5 0
36.5 1.5 0
37.5 1.5 0
38.5 1.5 0
39.5 1.5 0
40.5 1.5 0
41.5 1.5 0
42.5 1.5 0
43.5 1.5 0
44.5 1.5 0
45.5 1.5 0
46.5 1.5 0
47.5 1.5 0
48.5 1.5 0
49.5 1.5 0
0 2 0
1 2 0
2 2 0
3 2 0
4 2 0
5 2 0
6 2 0
7 2 0
8 2 0
9 2 0
10 2 0
11 2 0
12 2 0
13 2 0
14 2 0
15 2 0
16 2 0
17 2 0
18 2 0
19 2 0
20 2 0
21 2 0
22 2 0
23 2 0
24 2 0
25 2 0
26 2 0
27 2 0
28 2 0
29 2 0
30 2 0
31 2 0
32 2 0
33 2 0
34 2 0
35 2 0
36 2 0
37 2 0
38 2 0
39 2 0
40 2 0
41 2 0
42 2 0
43 2 0
44 2 0
45 2 0
46 2 0
47 2 0
48 2 0
49 2 0
50 2 0
0.5 2.5 0
1.5 2.5 0
2.5 2.5 0
3.5 2.5 0
4.5 2.5 0
5.5 2.5 0
6.5 2.5 0
7.5 2.5 0
8.5 2.5 0
9.5 2.5 0
10.5 2.5 0
11.5 2.5 0
12.5 2.5 0
13.5 2.5 0
14.5 2.5 0
15.5 2.5 0
16.5 2.5 0
17.5 2.5 0
18.5 2.5 0
19.5 2.5 0
20.5 2.5 0
21.5 2.5 0
22.5 2.5 0
23.5 2.5 0
24.5 2.5 0
25.5 2.5 0
26.5 2.5 0
27.5 2.5 0
28.5 2.5 0
29.5 2.5 0
30.5 2.5 0
31.5 2.5 0
32.5 2.5 0
33.5 2.5 0
34.5 2.5 0
35.5 2.5 0
36.5 2.5 0
37.5 2.5 0
38.5 2.5 0
39.5 2.5 0
40.5 2.5 0
41.5 2.5 0
42.5 2.5 0
43.5 2.5 0
44.5 2.5 0
45.5 2.5 0
46.5 2.5 0
47.5 2.5 0
48.5 2.5 0
49.5 2.5 0
0 3 0
1 3 0
2 3 0
3 3 0
4 3 0
5 3 0
6 3 0
7 3 0
8 3 0
9 3 0
10 3 0
11 3 0
12 3 0
13 3 0
14 3 0
15 3 0
16 3 0
17 3 0
18 3 0
19 3 0
20 3 0
21 3 0
22 3 0
23 3 0
24 3 0
25 3 0
26 3 0
27 3 0
28 3 0
29 3 0
30 3 0
31 3 0
32 3 0
33 3 0
34 3 0
35 3 0
36 3 0
37 3 0
38 3 0
39 3 0
40 3 0
41 3 0
42 3 0
43 3 0
44 3 0
45 3 0
46 3 0
47 3 0
48 3 0
49 3 0
50 3 0
0.5 3.5 0
1.5 3.5 0
2.5 3.5 0
3.5 3.5 0
4.5 3.5 0
5.5 3.5 0
6.5 3.5 0
7.5 3.5 0
8.5 3.5 0
9.5 3.5 0
10.5 3.5 0
11.5 3.5 0
12.5 3.5 0
13.5 3.5 0
14.5 3.5 0
15.5 3.5 0
16.5 3.5 0
17.5 3.5 0
18.5 3.5 0
19.5 3.5 0
20.5 3.5 0
21.5 3.5 0
22.5 3.5 0
23.5 3.5 0
24.5 3.5 0
25.5 3.5 0
26.5 3.5 0
27.5 3.5 0
28.5 3.5 0
29.5 3.5 0
30.5 3.5 0
31.5 3.5 0
32.5 3.5 0
33.5 3.5 0
34.5 3.5 0
35.5 3.5 0
36.5 3.5 0
37.5 3.5 0
38.5 3.5 0
39.5 3.5 0
40.5 3.5 0
41.5 3.5 0
42.5 3.5 0
43.5 3.5 0
44.5 3.5 0
45.5 3.5 0
46.5 3.5 0
47.5 3.5 0
48.5 3.5 0
49.5 3.5 0
0 4 0
1 4 0
2 4 0
3 4 0
4 4 0
5 4 0
6 4 0
7 4 0
8 4 0
9 4 0
10 4 0
11 4 0
12 4 0
13 4 0
14 4 0
15 4 0
16 4 0
17 4 0
18 4 0
19 4 0
20 4 0
21 4 0
22 4 0
23 4 0
24 4 0
25 4 0
26 4 0
27 4 0
28 4 0
29 4 0
30 4 0
31 4 0
32 4 0
33 4 0
34 4 0
35 4 0
36 4 0
37 4 0
38 4 0
39 4 0
40 4 0
41 4 0
42 4 0
43 4 0
44 4 0
45 4 0
46 4 0
47 4 0
48 4 0
49 4 0
50 4 0
0.5 4.5 0
1.5 4.5 0
2.5 4.5 0
3.5 4.5 0
4.5 4.5 0
5.5 4.5 0
6.5 4.5 0
7.5 4.5 0
8.5 4.5 0
9.5 4.5 0
10.5 4.5 0
11.5 4.5 0
12.5 4.5 0
13.5 4.5 0
14.5 4.5 0
15.5 4.5 0
16.5 4.5 0
17.5 4.5 0
18.5 4.5 0
19.5 4.5 0
20.5 4.5 0
21.5 4.5 0
22.5 4.5 0
23.5 4.5 0
24.5 4.5 0
25.5 4.5 0
26.5 4.5 0
27.5 4.5 0
28.5 4.5 0
29.5 4.5 0
30.5 4.5 0
31.5 4.5 0
32.5 4.5 0
33.5 4.5 0
34.5 4.5 0
35.5 4.5 0
36.5 4.5 0
37.5 4.5 0
38.5 4.5 0
39.5 4.5 0
40.5 4.5 0
41.5 4.5 0
42.5 4.5 0
43.5 4.5 0
44.5 4.5 0
45.5 4.5 0
46.5 4.5 0
47.5 4.5 0
48.5 4.5 0
49.5 4.5 0
0 5 0
1 5 0
2 5 0
3 5 0
4 5 0
5 5 0
6 5 0
7 5 0
8 5 0
9 5 0
10 5 0
11 5 0
12 5 0
13 5 0
14 5 0
15 5 0
16 5 0
17 5 0
18 5 0
19 5 0
20 5 0
21 5 0
22 5 0
23 5 0
24 5 0
25 5 0
26 5 0
27 5 0
28 5 0
29 5 0
30 5 0
31 5 0
32 5 0
33 5 0
34 5 0
35 5 0
36 5 0
37 5 0
38 5 0
39 5 0
40 5 0
41 5 0
42 5 0
43 5 0
44 5 0
45 5 0
46 5 0
47 5 0
48 5 0
49 5 0
50 5 0
0.5 5.5 0
1.5 5.5 0
2.5 5.5 0
3.5 5.5 0
4.5 5.5 0
5.5 5.5 0
6.5 5.5 0
7.5 5.5 0
8.5 5.5 0
9.5 5.5 0
10.5 5.5 0
11.5 5.5 0
12.5 5.5 0
13.5 5.5 0
14.5 5.5 0
15.5 5.5 0
16.5 5.5 0
17.5 5.5 0
18.5 5.5 0
19.5 5.5 0
20.5 5.5 0
21.5 5.5 0
22.5 5.5 0
23.5 5.5 0
24.5 5.5 0
25.5 5.5 0
26.5 5.5 0
27.5 5.5 0
28.5 5.5 0
29.5 5.5 0
30.5 5.5 0
31.5 5.5 0
32.5 5.5 0
33.5 5.5 0
34.5 5.5 0
35.5 5.5 0
36.5 5.5 0
37.5 5.5 0
38.5 5.5 0
39.5 5.5 0
40.5 5.5 0
41.5 5.5 0
42.5 5.5 0
43.5 5.5 0
44.5 5.5 0
45.5 5.5 0
46.5 5.5 0
47.5 5.5 0
48.5 5.5 0
49.5 5.5 0
0 6 0
1 6 0
2 6 0
3 6 0
4 6 0
5 6 0
6 6 0
7 6 0
8 6 0
9 6 0
10 6 0
11 6 0
12 6 0
13 6 0
14 6 0
15 6 0
16 6 0
17 6 0
18 6 0
19 6 0
20 6 0
21 6 0
22 6 0
23 6 0
24 6 0
25 6 0
26 6 0
27 6 0
28 6 0
29 6 0
30 6 0
31 6 0
32 6 0
33 6 0
34 6 0
35 6 0
36 6 0
37 6 0
38 6 0
39 6 0
40 6 0
41 6 0
42 6 0
43 6 0
44 6 0
45 6 0
46 6 0
47 6 0
48 6 0
49 6 0
50 6 0
0.5 6.5 0
1.5 6.5 0
2.5 6.5 0
3.5 6.5 0
4.5 6.5 0
5.5 6.5 0
6.5 6.5 0
7.5 6.5 0
8.5 6.5 0
9.5 6.5 0
10.5 6.5 0
11.5 6.5 0
12.5 6.5 0
13.5 6.5 0
14.5 6.5 0
15.5 6.5 0
16.5 6.5 0
17.5 6.5 0
18.5 6.5 0
19.5 6.5 0
20.5 6.5 0
21.5 6.5 0
22.5 6.5 0
23.5 6.5 0
24.5 6.5 0
25.5 6.5 0
26.5 6.5 0
27.5 6.5 0
28.5 6.5 0
29.5 6.5 0
30.5 6.5 0
31.5 6.5 0
32.5 6.5 0
33.5 6.5 0
34.5 6.5 0
35.5 6.5 0
36.5 6.5 0
37.5 6.5 0
38.5 6.5 0
39.5 6.5 0
40.5 6.5 0
41.5 6.5 0
42.5 6.5 0
43.5 6.5 0
44.5 6.5 0
45.5 6.5 0
46.5 6.5 0
47.5 6.5 0
48.5 6.5 0
49.5 6.5 0
0 7 0
1 7 0
2 7 0
3 7 0
4 7 0
5 7 0
6 7 0
7 7 0
8 7 0
9 7 0
10 7 0
11 7 0
12 7 0
13 7 0
14 7 0
15 7 0
16 7 0
17 7 0
18 7 0
19 7 0
20 7 0
21 7 0
22 7 0
23 7 0
24 7 0
25 7 0
26 7 0
27 7 0
28 7 0
29 7 0
30 7 0
31 7 0
32 7 0
33 7 0
34 7 0
35 7 0
36 7 0
37 7 0
38 7 0
39 7 0
40 7 0
41 7 0
42 7 0
43 7 0
44 7 0
45 7 0
46 7 0
47 7 0
48 7 0
49 7 0
50 7 0
0.5 7.5 0
1.5 7.5 0
2.5 7.5 0
3.5 7.5 0
4.5 7.5 0
5.5 7.5 0
6.5 7.5 0
7.5 7.5 0
8.5 7.5 0
9.5 7.5 0
10.5 7.5 0
11.5 7.5 0
12.5 7.5 0
13.5 7.5 0
14.5 7.5 0
15.5 7.5 0
16.5 7.5 0
17.5 7.5 0
18.5 7.5 0
19.5 7.5 0
20.5 7.5 0
21.5 7.5 0
22.5 7.5 0
23.5 7.5 0
24.5 7.5 0
25.5 7.5 0
26.5 7.5 0
27.5 7.5 0
28.5 7.5 0
29.5 7.5 0
30.5 7.5 0
31.5 7.5 0
32.5 7.5 0
33.5 7.5 0
34.5 7.5 0
35.5 7.5 0
36.5 7.5 0
37.5 7.5 0
38.5 7.5 0
39.5 7.5 0
40.5 7.5 0
41.5 7.5 0
42.5 7.5 0
43.5 7.5 0
44.5 7.5 0
45.5 7.5 0
46.5 7.5 0
47.5 7.5 0
48.5 7.5 0
49.5 7.5 0
0 8 0
1 8 0
2 8 0
3 8 0
4 8 0
5 8 0
6 8 0
7 8 0
8 8 0
9 8 0
10 8 0
11 8 0
12 8 0
13 8 0
14 8 0
15 8 0
16 8 0
17 8 0
18 8 0
19 8 0
20 8 0
21 8 0
22 8 0
23 8 0
24 8 0
25 8 0
26 8 0
27 8 0
28 8 0
29 8 0
30 8 0
31 8 0
32 8 0
33 8 0
34 8 0
35 8 0
36 8 0
37 8 0
38 8 0
39 8 0
40 8 0
41 8 0
42 8 0
43 8 0
44 8 0
45 8 0
46 8 0
47 8 0
48 8 0
49 8 0
50 8 0
0.5 8.5 0
1.5 8.5 0
2.5 8.5 0
3.5 8.5 0
4.5 8.5 0
5.5 8.5 0
6.5 8.5 0
7.5 8.5 0
8.5 8.5 0
9.5 8.5 0
10.5 8.5 0
11.5 8.5 0
12.5 8.5 0
13.5 8.5 0
14.5 8.5 0
15.5 8.5 0
16.5 8.5 0
17.5 8.5 0
18.5 8.5 0
19.5 8.5 0
20.5 8.5 0
21.5 8.5 0
22.5 8.5 0
23.5 8.5 0
24.5 8.5 0
25.5 8.5 0
26.5 8.5 0
27.5 8.5 0
28.5 8.5 0
29.5 8.5 0
30.5 8.5 0
31.5 8.5 0
32.5 8.5 0
33.5 8.5 0
34.5 8.5 0
35.5 8.5 0
36.5 8.5 0
37.5 8.5 0
38.5 8.5 0
39.5 8.5 0
40.5 8.5 0
41.5 8.5 0
42.5 8.5 0
43.5 8.5 0
44.5 8.5 0
45.5 8.5 0
46.5 8.5 0
47.5 8.5 0
48.5 8.5 0
49.5 8.5 0
0 9 0
1 9 0
2 9 0
3 9 0
4 9 0
5 9 0
6 9 0
7 9 0
8 9 0
9 9 0
10 9 0
11 9 0
12 9 0
13 9 0
14 9 0
15 9 0
16 9 0
17 9 0
18 9 0
19 9 0
20 9 0
21 9 0
22 9 0
23 9 0
24 9 0
25 9 0
26 9 0
27 9 0
28 9 0
29 9 0
30 9 0
31 9 0
32 9 0
33 9 0
34 9 0
35 9 0
36 9 0
37 9 0
38 9 0
39 9 0
40 9 0
41 9 0
42 9 0
43 9 0
44 9 0
45 9 0
46 9 0
47 9 0
48 9 0
49 9 0
50 9 0
0.5 9.5 0
1.5 9.5 0
2.5 9.5 0
3.5 9.5 0
4.5 9.5 0
5.5 9.5 0
6.5 9.5 0
7.5 9.5 0
8.5 9.5 0
9.5 9.5 0
10.5 9.5 0
11.5 9.5 0
12.5 9.5 0
13.5 9.5 0
14.5 9.5 0
15.5 9.5 0
16.5 9.5 0
17.5 9.5 0
18.5 9.5 0
19.5 9.5 0
20.5 9.5 0
21.5 9.5 0
22.5 9.5 0
23.5 9.5 0
24.5 9.5 0
25.5 9.5 0
26.5 9.5 0
27.5 9.5 0
28.5 9.5 0
29.5 9.5 0
30.5 9.5 0
31.5 9.5 0
32.5 9.5 0
33.5 9.5 0
34.5 9.5 0
35.5 9.5 0
36.5 9.5 0
37.5 9.5 0
38.5 9.5 0
39.5 9.5 0
40.5 9.5 0
41.5 9.5 0
42.5 9.5 0
43.5 9.5 0
44.5 9.5 0
45.5 9.5 0
46.5 9.5 0
47.5 9.5 0
48.5 9.5 0
49.5 9.5 0
0 10 0
1 10 0
2 10 0
3 10 0
4 10 0
5 10 0
6 10 0
7 10 0
8 10 0
9 10 0
10 10 0
11 10 0
12 10 0
13 10 0
14 10 0
15 10 0
16 10 0
17 10 0
18 10 0
19 10 0
20 10 0
21 10 0
22 10 0
23 10 0
24 10 0
25 10 0
26 10 0
27 10 0
28 10 0
29 10 0
30 10 0
31 10 0
32 10 0
33 10 0
34 10 0
35 10 0
36 10 0
37 10 0
38 10 0
39 10 0
40 10 0
41 10 0
42 10 0
43 10 0
44 10 0
45 10 0
46 10 0
47 10 0
48 10 0
49 10 0
50 10 0
0.5 10.5 0
1.5 10.5 0
2.5 10.5 0
3.5 10.5 0
4.5 10.5 0
5.5 10.5 0
6.5 10.5 0
7.5 10.5 0
8.5 10.5 0
9.5 10.5 0
10.5 10.5 0
11.5 10.5 0
12.5 10.5 0
13.5 10.5 0
14.5 10.5 0
15.5 10.5 0
16.5 10.5 0
17.5 10.5 0
18.5 10.5 0
19.5 10.5 0
20.5 10.5 0
21.5 10.5 0
22.5 10.5 0
23.5 10.5 0
24.5 10.5 0
25.5 10.5 0
26.5 10.5 0
27.5 10.5 0
28.5 10.5 0
29.5 10.5 0
30.5 10.5 0
31.5 10.5 0
32.5 10.5 0
33.5 10.5 0
34.5 10.5 0
35.5 10.5 0
36.5 10.5 0
37.5 10.5 0
38.5 10.5 0
39.5 10.5 0
40.5 10.5 0
41.5 10.5 0
42.5 10.5 0
43.5 10.5 0
44.5 10.5 0
45.5 10.5 0
46.5 10.5 0
47.5 10.5 0
48.5 10.5 0
49.5 10.5 0
0 11 0
1 11 0
2 11 0
3 11 0
[...]
POINT_DATA 5101
VECTORS velocity float
0.583277 0.583277 0.565311
0.602152 0.512396 0.612261
0.571904 0.430411 0.698335
0.574678 0.343974 0.742581
0.608356 0.228016 0.760205
0.655256 0.0776444 0.751406
0.695582 -0.0976278 0.711783
0.714043 -0.279598 0.641847
0.704422 -0.449524 0.549288
0.668955 -0.595057 0.445429
0.614059 -0.711956 0.34066
0.546327 -0.801773 0.242253
0.470594 -0.868721 0.154487
0.389707 -0.917484 0.0796975
0.305118 -0.952119 0.0192836
0.217686 -0.97568 -0.0257058
0.128357 -0.990234 -0.0544107
0.0385627 -0.997053 -0.0663178
-0.0497368 -0.996864 -0.0615533
-0.134326 -0.990084 -0.0411132
-0.213166 -0.976992 -0.006896
-0.284788 -0.957818 0.0384892
-0.348515 -0.932772 0.0920525
-0.404465 -0.90204 0.150768
-0.453378 -0.86578 0.211833
-0.496379 -0.824123 0.272816
-0.534735 -0.777197 0.331698
-0.569657 -0.725148 0.386847
-0.60216 -0.668173 0.436976
-0.632979 -0.606544 0.481084
-0.662529 -0.540634 0.51843
-0.690905 -0.47094 0.548512
-0.717916 -0.398094 0.571068
-0.743147 -0.322864 0.586082
-0.766047 -0.246145 0.593788
-0.78603 -0.168926 0.59466
-0.802576 -0.09224 0.589376
-0.815321 -0.017103 0.578756
-0.824119 0.0555585 0.563685
-0.829062 0.124977 0.545011
-0.830462 0.190602 0.523454
-0.828797 0.252142 0.49952
-0.824629 0.309589 0.473436
-0.818508 0.363217 0.445104
-0.810862 0.413571 0.414081
-0.801876 0.461446 0.379555
-0.791381 0.507859 0.340287
-0.778763 0.553979 0.294337
-0.762956 0.600982 0.238157
-0.741608 0.650385 0.164372
-0.70576 0.70576 0.0617005
0.550316 0.550316 0.627937
0.547538 0.458674 0.699871
0.579633 0.363376 0.729372
0.638946 0.246717 0.728614
0.707131 0.0988256 0.700143
0.76316 -0.0750492 0.641837
0.790049 -0.258641 0.555812
0.780572 -0.432787 0.451002
0.737705 -0.583387 0.33978
0.67027 -0.704501 0.233273
0.588063 -0.796788 0.138962
0.499095 -0.864421 0.0606663
0.408817 -0.912616 -0.000430573
0.320373 -0.946237 -0.0446836
0.235203 -0.969189 -0.0731657
0.153655 -0.984274 -0.0871533
0.075519 -0.993265 -0.0878708
0.000430257 -0.997075 -0.0764268
-0.0718695 -0.995958 -0.0538787
-0.141404 -0.989722 -0.0213571
-0.207965 -0.977935 0.0198143
-0.271206 -0.960112 0.0680562
-0.330776 -0.935849 0.121551
-0.386446 -0.904907 0.178331
-0.43818 -0.867243 0.236408
-0.486134 -0.822984 0.29389
-0.530606 -0.772398 0.349084
-0.571946 -0.715853 0.40054
-0.61047 -0.653796 0.447076
-0.646378 -0.586746 0.487775
-0.679705 -0.515304 0.52198
-0.710307 -0.440169 0.549286
-0.737884 -0.362151 0.569538
-0.762028 -0.282182 0.582827
-0.782301 -0.201294 0.589479
-0.79833 -0.120592 0.590022
-0.809884 -0.0411893 0.585143
-0.816938 0.0358566 0.57561
-0.819706 0.109625 0.562196
-0.818626 0.179403 0.545587
-0.814317 0.244733 0.526302
-0.8075 0.305454 0.50462
-0.798908 0.361698 0.480541
-0.789185 0.413886 0.453745
-0.778776 0.4627 0.423577
-0.76781 0.509063 0.389003
-0.75598 0.55414 0.348459
-0.742419 0.599351 0.299318
-0.72523 0.646588 0.23657
-0.698479 0.698479 0.155739
0.512396 0.602152 0.612261
0.50342 0.50342 0.702238
0.545485 0.415183 0.728058
0.619677 0.305844 0.722814
0.705948 0.168083 0.68803
0.781913 0.00317199 0.62338
0.8285 -0.176624 0.531405
0.835423 -0.353857 0.42054
0.802968 -0.513309 0.302913
0.738969 -0.646333 0.190203
0.654097 -0.750924 0.09094
0.55842 -0.829499 0.00993261
0.459827 -0.886537 -0.0510979
0.3637 -0.926906 -0.0925581
0.273172 -0.954933 -0.116101
0.189595 -0.974008 -0.123944
0.113035 -0.986512 -0.118393
0.0427383 -0.993911 -0.101559
-0.0224815 -0.996912 -0.0752367
-0.0839262 -0.995632 -0.0409
-0.142779 -0.989755 0.000212851
-0.199949 -0.97868 0.046975
-0.256002 -0.961671 0.0982454
-0.311152 -0.938 0.152777
-0.365324 -0.907072 0.209184
-0.418233 -0.868529 0.265967
-0.469485 -0.822292 0.321589
-0.518647 -0.76857 0.374574
-0.565295 -0.707819 0.423596
-0.609019 -0.640693 0.467556
-0.649414 -0.567991 0.505616
-0.686063 -0.490625 0.537219
-0.718528 -0.409604 0.562088
-0.746368 -0.326026 0.580208
-0.769187 -0.241069 0.591808
-0.78669 -0.15597 0.597321
-0.798752 -0.0719771 0.597339
-0.805476 0.00970946 0.592549
-0.807215 0.0880173 0.583658
-0.804568 0.162077 0.571316
-0.798329 0.231287 0.556036
-0.789418 0.29535 0.538134
-0.778777 0.354288 0.517674
-0.767281 0.408431 0.494432
-0.755626 0.458388 0.467878
-0.744222 0.505019 0.437137
-0.73306 0.549453 0.400905
-0.721501 0.593184 0.357167
-0.707838 0.638308 0.302537
-0.68749 0.68749 0.23391
-0.650385 0.741608 0.164372
0.458674 0.547538 0.699871
0.484582 0.484582 0.728259
0.560296 0.393305 0.728958
0.657535 0.27244 0.702442
0.753645 0.121523 0.645949
0.826647 -0.0515987 0.56035
0.861434 -0.231707 0.451932
0.853239 -0.402438 0.331705
0.806583 -0.551848 0.211866
0.731223 -0.674382 0.102574
0.638156 -0.769835 0.0105326
0.537163 -0.841273 -0.0609589
0.435753 -0.893158 -0.111302
0.338968 -0.930059 -0.141744
0.249621 -0.955926 -0.154579
0.168731 -0.973792 -0.152508
0.0959935 -0.985744 -0.138182
0.0302466 -0.993028 -0.113929
-0.030138 -0.996206 -0.0816374
-0.0869217 -0.995297 -0.0427624
-0.14174 -0.989903 0.00157724
-0.195912 -0.979323 0.0504572
-0.250315 -0.962671 0.10299
-0.305337 -0.939012 0.158194
-0.360886 -0.907511 0.214909
-0.416468 -0.867572 0.271794
-0.471307 -0.818954 0.327389
-0.524476 -0.76181 0.380224
-0.575013 -0.696676 0.428955
-0.622009 -0.624403 0.472467
-0.664647 -0.546074 0.509948
-0.702217 -0.462928 0.540915
-0.734129 -0.376305 0.565198
-0.759929 -0.28761 0.582914
-0.779335 -0.198287 0.594406
-0.792286 -0.109771 0.600194
-0.79898 -0.0234411 0.600901
-0.799898 0.059461 0.597184
-0.79579 0.137907 0.589662
-0.787624 0.21115 0.578847
-0.776508 0.278777 0.565083
-0.763584 0.340718 0.548499
-0.749929 0.397233 0.528974
-0.736449 0.448881 0.506111
-0.723781 0.496477 0.47922
-0.71217 0.541086 0.447259
-0.701269 0.584114 0.408696
-0.68971 0.627548 0.361226
-0.673957 0.673957 0.302593
-0.646588 0.72523 0.23657
0.430411 0.571904 0.698335
0.415183 0.545485 0.728058
0.482229 0.482229 0.731376
0.58347 0.384376 0.715414
0.695503 0.253352 0.672376
0.794857 0.0933501 0.599574
0.86186 -0.0838947 0.500159
0.885778 -0.262379 0.382825
0.86602 -0.427536 0.259273
0.809529 -0.569937 0.140832
0.726834 -0.685856 0.036245
0.62888 -0.775953 -0.0490645
0.525158 -0.843498 -0.112787
0.422852 -0.89283 -0.155081
0.326661 -0.928273 -0.177769
0.239028 -0.953505 -0.183561
0.160577 -0.97131 -0.175419
0.0906176 -0.983574 -0.156112
0.0276202 -0.991394 -0.127966
-0.0303728 -0.995224 -0.0927762
-0.0854067 -0.994997 -0.0518388
-0.139346 -0.990225 -0.00607317
-0.193668 -0.980088 0.0438106
-0.249323 -0.963537 0.0971278
-0.306655 -0.939434 0.153057
-0.3654 -0.906729 0.210535
-0.424765 -0.864651 0.268241
-0.483572 -0.812864 0.324668
-0.540441 -0.751557 0.378267
-0.593971 -0.681428 0.427615
-0.64288 -0.603597 0.471567
-0.686087 -0.519483 0.509335
-0.722745 -0.430677 0.540515
-0.752258 -0.338857 0.565052
-0.774292 -0.245722 0.583175
-0.788798 -0.152945 0.59532
-0.796039 -0.0621165 0.602049
-0.796602 0.0253265 0.603973
-0.791377 0.10818 0.601681
-0.781499 0.185549 0.595676
-0.768264 0.256897 0.586323
-0.753009 0.322067 0.573803
-0.737008 0.381263 0.558084
-0.721358 0.435004 0.538901
-0.706886 0.484075 0.515737
-0.694044 0.529488 0.487797
-0.682751 0.57253 0.453938
-0.672022 0.614954 0.412575
-0.659144 0.659144 0.362021
-0.638308 0.707838 0.302537
-0.600982 0.762956 0.238157
0.363376 0.579633 0.729372
0.393305 0.560296 0.728958
0.490716 0.490716 0.719996
0.612163 0.385136 0.690599
0.733738 0.245406 0.633565
0.832698 0.0792346 0.548029
0.892759 -0.099584 0.439391
0.907321 -0.275577 0.31753
0.87875 -0.436166 0.193797
0.815242 -0.573791 0.0783885
0.727514 -0.685769 -0.0211009
0.626343 -0.773089 -0.100143
0.521003 -0.838969 -0.157118
0.418441 -0.887557 -0.192742
0.32306 -0.92295 -0.209274
0.236946 -0.948616 -0.209725
0.160342 -0.967161 -0.197206
0.092186 -0.980332 -0.174502
0.0306198 -0.989126 -0.143846
-0.0265834 -0.993918 -0.106866
-0.0816703 -0.99456 -0.0646513
-0.136632 -0.99046 -0.0178989
-0.192989 -0.98065 0.0328865
-0.251634 -0.963888 0.0871818
-0.312738 -0.938821 0.144258
-0.375749 -0.9042 0.203063
-0.439479 -0.859131 0.262206
-0.502301 -0.803278 0.320058
-0.562389 -0.736977 0.374946
-0.617964 -0.661201 0.425364
-0.667482 -0.577431 0.470149
-0.709734 -0.487473 0.508574
-0.743882 -0.393288 0.540338
-0.769461 -0.296872 0.565505
-0.786384 -0.200177 0.584405
-0.794939 -0.105047 0.597526
-0.795789 -0.0131428 0.605431
-0.78995 0.0741309 0.608674
-0.778717 0.15571 0.607746
-0.763572 0.230925 0.603018
-0.746057 0.299525 0.594713
-0.727646 0.361653 0.58287
-0.709629 0.417798 0.567338
-0.693011 0.468723 0.547754
-0.678426 0.515409 0.523538
-0.666012 0.559043 0.493861
-0.655137 0.601145 0.457625
-0.643778 0.643778 0.413643
-0.627548 0.68971 0.361226
-0.599351 0.742419 0.299318
0.343974 0.574678 0.742581
0.305844 0.619677 0.722814
0.384376 0.58347 0.715414
0.507139 0.507139 0.696865
0.644244 0.393849 0.655616
0.771191 0.247093 0.586693
0.867403 0.0771872 0.491584
0.920518 -0.1014 0.377311
0.927445 -0.274532 0.253925
0.8924 -0.43154 0.131893
0.824023 -0.566191 0.0203255
0.732887 -0.676311 -0.0740276
0.629568 -0.762866 -0.147239
0.523203 -0.828846 -0.198174
0.420585 -0.878143 -0.227978
0.325881 -0.914634 -0.239262
0.240863 -0.941614 -0.235262
0.165423 -0.961559 -0.219179
0.0981615 -0.976126 -0.193759
0.0369269 -0.986247 -0.1611
-0.0207337 -0.992236 -0.122633
-0.0772177 -0.993862 -0.0792191
-0.134581 -0.990407 -0.031336
-0.19431 -0.980722 0.0206973
-0.257145 -0.963342 0.0764762
-0.32298 -0.936684 0.1353
-0.390865 -0.899327 0.196049
-0.459133 -0.850325 0.257186
-0.525661 -0.78946 0.316912
-0.588196 -0.71735 0.373409
-0.644662 -0.635367 0.425111
-0.693375 -0.545434 0.470885
-0.733143 -0.449775 0.510103
-0.76328 -0.350708 0.542594
-0.783588 -0.250508 0.568538
-0.794336 -0.151312 0.588333
-0.796231 -0.0550469 0.602483
-0.790391 0.0366532 0.611506
-0.778261 0.122528 0.615871
-0.761511 0.201756 0.615951
-0.741891 0.273973 0.611994
-0.721091 0.339258 0.604096
-0.700603 0.398066 0.592198
-0.681622 0.451146 0.576072
-0.664954 0.499458 0.555318
-0.650925 0.544131 0.529356
-0.639194 0.586504 0.497438
-0.628307 0.628307 0.45876
-0.614954 0.672022 0.412575
-0.593184 0.721501 0.357167
-0.553979 0.778763 0.294337
0.246717 0.638946 0.728614
0.27244 0.657535 0.702442
0.385136 0.612163 0.690599
0.529261 0.529261 0.663148
0.67756 0.408888 0.61133
0.806301 0.256937 0.532788
0.89823 0.0854463 0.43114
0.944942 -0.0915259 0.314177
0.946004 -0.261616 0.1914
0.906552 -0.415871 0.0722204
0.835104 -0.548969 -0.035142
0.741878 -0.658876 -0.124495
0.637242 -0.74629 -0.192283
0.530257 -0.813831 -0.237713
0.427632 -0.86507 -0.262269
0.333362 -0.903653 -0.268851
0.248954 -0.932719 -0.260878
0.173991 -0.954649 -0.241604
0.106773 -0.971046 -0.213705
0.0448912 -0.982802 -0.179123
-0.0142999 -0.990178 -0.139079
-0.073308 -0.99285 -0.0942053
-0.134202 -0.989942 -0.0447679
-0.198364 -0.980086 0.00907121
-0.266292 -0.961563 0.0669767
-0.337493 -0.932556 0.128207
-0.410509 -0.891522 0.191496
-0.483115 -0.837572 0.255095
-0.552677 -0.770752 0.317001
-0.616566 -0.692113 0.375267
-0.672526 -0.603537 0.428313
-0.718881 -0.507442 0.475092
-0.754613 -0.406467 0.515116
-0.779328 -0.303247 0.548352
-0.793213 -0.200266 0.575071
-0.796984 -0.0997594 0.595705
-0.791832 -0.00363001 0.610728
-0.779339 0.0866331 0.620585
-0.761356 0.170025 0.625643
-0.739851 0.246052 0.626163
-0.71674 0.314711 0.622287
-0.693741 0.376417 0.614031
-0.67225 0.431906 0.601279
-0.653255 0.482133 0.583785
-0.637258 0.528192 0.561173
-0.624154 0.571308 0.532953
-0.61294 0.61294 0.498608
-0.601145 0.655137 0.457625
-0.584114 0.701269 0.408696
-0.55414 0.75598 0.348459
0.228016 0.608356 0.760205
0.168083 0.705948 0.68803
0.253352 0.695503 0.672376
0.393849 0.644244 0.655616
0.554947 0.554947 0.619733
0.709973 0.42848 0.558878
0.83748 0.273266 0.473236
0.924244 0.10213 0.36789
0.965406 -0.0720761 0.250591
0.962305 -0.238944 0.129904
0.920271 -0.391022 0.0142446
0.84732 -0.523605 -0.0888082
0.753173 -0.634563 -0.173379
0.64797 -0.724145 -0.236113
0.540725 -0.794475 -0.276451
0.438121 -0.848731 -0.296153
0.344034 -0.890291 -0.298366
0.25976 -0.922144 -0.286662
0.18462 -0.946599 -0.264322
0.116648 -0.965227 -0.233943
0.0532135 -0.978898 -0.197297
-0.0084888 -0.987817 -0.155389
-0.071037 -0.991542 -0.108624
-0.136458 -0.989001 -0.0570727
-0.205948 -0.978563 -0.000774829
-0.279656 -0.958227 0.0599447
-0.356582 -0.925968 0.124226
-0.43465 -0.880205 0.190575
-0.511021 -0.820255 0.256982
-0.582573 -0.746605 0.321231
-0.646413 -0.660882 0.381294
-0.700256 -0.565562 0.435639
-0.74261 -0.463566 0.483359
-0.772779 -0.357914 0.524128
-0.790793 -0.251485 0.558034
-0.797326 -0.14688 0.585404
-0.793613 -0.0463228 0.606657
-0.781351 0.0484284 0.622209
-0.76257 0.136151 0.632416
-0.739453 0.216194 0.63755
-0.71416 0.288452 0.637786
-0.688653 0.353289 0.633202
-0.664551 0.411427 0.623778
-0.643042 0.463818 0.609402
-0.624803 0.511547 0.589865
-0.609934 0.555773 0.564886
-0.597773 0.597773 0.534167
-0.586504 0.639194 0.497438
-0.57253 0.682751 0.453938
-0.549453 0.73306 0.400905
-0.507859 0.791381 0.340287
0.0988256 0.707131 0.700143
0.121523 0.753645 0.645949
0.245406 0.733738 0.633565
0.408888 0.67756 0.61133
0.58208 0.58208 0.567772
0.739577 0.450809 0.499796
0.863458 0.29431 0.40966
0.944691 0.125287 0.303088
0.981281 -0.0451343 0.18722
0.975542 -0.208509 0.0695864
0.932499 -0.358698 -0.0422087
0.859424 -0.491438 -0.140993
0.765438 -0.604362 -0.221023
0.660405 -0.697145 -0.279024
0.553292 -0.771297 -0.314594
0.450778 -0.829509 -0.329719
0.35667 -0.874847 -0.327764
0.272101 -0.910135 -0.312434
0.196172 -0.937621 -0.287026
0.126694 -0.958859 -0.254042
0.060844 -0.974699 -0.21508
-0.00430302 -0.985275 -0.170922
-0.0713488 -0.989993 -0.121753
-0.142207 -0.987535 -0.0674655
-0.217789 -0.975963 -0.00802186
-0.297764 -0.952984 0.0561917
-0.380485 -0.916421 0.124108
-0.463166 -0.864793 0.193932
-0.542339 -0.797816 0.263358
-0.614483 -0.716601 0.329989
-0.676602 -0.623474 0.391778
-0.726576 -0.521534 0.447314
-0.763266 -0.414175 0.495867
-0.786446 -0.304721 0.53726
-0.796682 -0.196203 0.571667
-0.795216 -0.0912277 0.599424
-0.783841 0.00812324 0.620909
-0.76475 0.100366 0.636462
-0.74035 0.184656 0.646363
-0.713052 0.26076 0.650816
-0.685079 0.328977 0.649955
-0.658301 0.390005 0.643845
-0.634122 0.444799 0.63249
-0.613414 0.494446 0.61583
-0.59646 0.540079 0.593759
-0.582866 0.582866 0.566158
-0.571308 0.624154 0.532953
-0.559043 0.666012 0.493861
-0.541086 0.71217 0.447259
-0.509063 0.76781 0.389003
0.0776444 0.655256 0.751406
0.00317199 0.781913 0.62338
0.0933501 0.794857 0.599574
0.247093 0.771191 0.586693
0.42848 0.709973 0.558878
0.608719 0.608719 0.508844
0.764925 0.474192 0.435926
0.88346 0.318352 0.34373
0.959163 0.153006 0.237899
0.992115 -0.0127077 0.124682
0.985002 -0.172213 0.0106705
0.942243 -0.320539 -0.0971231
0.870241 -0.453778 -0.191745
0.77743 -0.569269 -0.267462
0.673322 -0.666029 -0.321001
0.566793 -0.744848 -0.352062
0.464516 -0.807829 -0.36282
0.370252 -0.857663 -0.35683
0.285013 -0.896985 -0.337915
0.207725 -0.927974 -0.309376
0.136015 -0.952174 -0.273612
0.0669094 -0.970404 -0.232034
-0.00259552 -0.982698 -0.185198
-0.0750603 -0.98826 -0.13307
-0.152192 -0.985471 -0.075393
-0.234485 -0.972044 -0.0121096
-0.320975 -0.945416 0.0562439
-0.409228 -0.903367 0.128297
-0.495683 -0.844712 0.20189
-0.576301 -0.769786 0.27442
-0.647323 -0.680491 0.343372
-0.705858 -0.579922 0.406762
-0.750154 -0.47178 0.463349
-0.779591 -0.359857 0.512582
-0.79454 -0.247682 0.554401
-0.796197 -0.13832 0.589014
-0.786426 -0.0342477 0.616735
-0.767575 0.0627318 0.637882
-0.742272 0.151534 0.65274
-0.713194 0.231767 0.661542
-0.682841 0.303643 0.664477
-0.653354 0.367825 0.66169
-0.626382 0.425269 0.653294
-0.603005 0.477073 0.639364
-0.583693 0.524368 0.619952
-0.568268 0.568268 0.595099
-0.555773 0.609934 0.564886
-0.544131 0.650925 0.529356
-0.529488 0.694044 0.487797
-0.505019 0.744222 0.437137
-0.461446 0.801876 0.379555
-0.0750492 0.76316 0.641837
-0.0515987 0.826647 0.56035
0.0792346 0.832698 0.548029
0.256937 0.806301 0.532788
0.450809 0.739577 0.499796
0.633285 0.633285 0.44486
0.785148 0.497225 0.369201
0.897241 0.343851 0.276992
0.967617 0.183513 0.17332
0.997709 0.0233138 0.0635089
0.990169 -0.131887 -0.0465894
0.948689 -0.278176 -0.150356
0.878761 -0.411986 -0.24093
0.788062 -0.530364 -0.312526
0.685654 -0.63163 -0.361832
0.580228 -0.715765 -0.388607
0.478413 -0.78419 -0.395181
0.383927 -0.839145 -0.385273
0.297694 -0.883036 -0.362803
0.218506 -0.917961 -0.331063
0.143851 -0.945435 -0.292333
0.0706498 -0.966225 -0.247826
-0.00411756 -0.980222 -0.197858
-0.0828869 -0.986364 -0.142184
-0.167033 -0.982664 -0.0804387
-0.256467 -0.96647 -0.0126235
-0.349414 -0.935015 0.0604671
-0.442537 -0.886214 0.137063
-0.531504 -0.819421 0.214599
-0.611842 -0.735814 0.290219
-0.67978 -0.63821 0.361369
-0.73277 -0.530472 0.426202
-0.769621 -0.416834 0.483667
-0.79038 -0.301377 0.533359
-0.796124 -0.187713 0.575283
-0.78875 -0.0788012 0.609643
-0.770752 0.0231592 0.636715
-0.744984 0.116783 0.65678
-0.714399 0.201477 0.670105
-0.681795 0.277334 0.676936
-0.649605 0.34497 0.677502
-0.619747 0.405337 0.672024
-0.593529 0.459547 0.660711
-0.571619 0.508746 0.643762
-0.55403 0.55403 0.621371
-0.540079 0.59646 0.593759
-0.528192 0.637258 0.561173
-0.515409 0.678426 0.523538
-0.496477 0.723781 0.47922
-0.4627 0.778776 0.423577
-0.0976278 0.695582 0.711783
-0.176624 0.8285 0.531405
-0.0838947 0.86186 0.500159
0.0771872 0.867403 0.491584
0.273266 0.83748 0.473236
0.474192 0.764925 0.435926
0.654687 0.654687 0.37785
0.799958 0.518856 0.301423
0.905012 0.369514 0.210743
0.970332 0.215235 0.110137
0.998117 0.0611919 0.00413952
0.990777 -0.089288 -0.101926
0.951271 -0.233259 -0.201678
0.884209 -0.367511 -0.28829
0.796464 -0.488848 -0.355911
0.696524 -0.594903 -0.401179
0.59277 -0.684796 -0.423886
0.491701 -0.759179 -0.426471
0.396978 -0.819766 -0.412785
0.309455 -0.868683 -0.386817
0.227837 -0.907913 -0.35183
0.149518 -0.938919 -0.309962
0.0713766 -0.96237 -0.262201
-0.00954811 -0.977951 -0.208618
-0.0954512 -0.984254 -0.148771
-0.18721 -0.978871 -0.0822446
-0.283951 -0.958795 -0.00921051
-0.382915 -0.921191 0.0691554
-0.479801 -0.864356 0.150599
-0.569594 -0.78846 0.232149
-0.647618 -0.69571 0.31077
-0.710357 -0.589888 0.383959
-0.755841 -0.475567 0.450045
-0.783617 -0.357397 0.508146
-0.794528 -0.239619 0.557951
-0.790444 -0.12578 0.599481
-0.773991 -0.0185752 0.632925
-0.748255 0.0802274 0.658543
-0.716486 0.16977 0.676629
-0.681803 0.249989 0.687496
-0.646956 0.321432 0.691469
-0.614153 0.385035 0.688886
-0.584954 0.441929 0.680094
-0.560235 0.49328 0.665441
-0.540195 0.540195 0.645274
-0.524368 0.583693 0.619952
-0.511547 0.624803 0.589865
-0.499458 0.664954 0.555318
-0.484075 0.706886 0.515737
-0.458388 0.755626 0.467878
-0.413571 0.810862 0.414081
-0.258641 0.790049 0.555812
-0.231707 0.861434 0.451932
-0.099584 0.892759 0.439391
0.0854463 0.89823 0.43114
0.29431 0.863458 0.40966
0.497225 0.785148 0.369201
0.67234 0.67234 0.309707
0.809529 0.538393 0.234085
0.907306 0.394322 0.145965
0.967821 0.246837 0.0489254
0.993633 0.0993724 -0.0530856
0.986827 -0.04607 -0.155079
0.949716 -0.187425 -0.25082
0.886102 -0.321865 -0.333505
0.802027 -0.446031 -0.397253
0.705274 -0.556925 -0.438661
0.603761 -0.652794 -0.457529
0.503747 -0.733467 -0.456361
0.408788 -0.800059 -0.439088
0.319685 -0.854354 -0.409732
0.235096 -0.89818 -0.371488
0.152384 -0.932896 -0.326319
0.0684516 -0.959016 -0.27496
-0.0194993 -0.975927 -0.217224
-0.113267 -0.98179 -0.15251
-0.213021 -0.97373 -0.0804497
-0.316889 -0.948461 -0.00152084
-0.420984 -0.903301 0.0825878
-0.520057 -0.837229 0.169082
-0.608615 -0.751498 0.254633
-0.682069 -0.649467 0.336117
-0.737443 -0.53585 0.411149
-0.77356 -0.415815 0.478229
-0.790862 -0.29429 0.536593
-0.791097 -0.175518 0.585969
-0.776983 -0.0628126 0.62638
-0.751849 0.0415658 0.658024
-0.719268 0.13641 0.681209
-0.682717 0.221444 0.696318
-0.645295 0.297112 0.703789
-0.609524 0.364323 0.704095
-0.577235 0.424221 0.697736
-0.54953 0.478001 0.685224
-0.526794 0.526794 0.667065
-0.508746 0.571619 0.643762
-0.494446 0.613414 0.61583