# vtk DataFile Version 2.0
tmp/0.000.00-10.000.000.001.0065.vtk
ASCII
DATASET UNSTRUCTURED_GRID
POINTS 5000 float
0.25 0.25 0
1.25 0.25 0
2.25 0.25 0
3.25 0.25 0
4.25 0.25 0
5.25 0.25 0
6.25 0.25 0
7.25 0.25 0
8.25 0.25 0
9.25 0.25 0
10.25 0.25 0
11.25 0.25 0
12.25 0.25 0
13.25 0.25 0
14.25 0.25 0
15.25 0.25 0
16.25 0.25 0
17.25 0.25 0
18.25 0.25 0
19.25 0.25 0
20.25 0.25 0
21.25 0.25 0
22.25 0.25 0
23.25 0.25 0
24.25 0.25 0
25.25 0.25 0
26.25 0.25 0
27.25 0.25 0
28.25 0.25 0
29.25 0.25 0
30.25 0.25 0
31.25 0.25 0
32.25 0.25 0
33.25 0.25 0
34.25 0.25 0
35.25 0.25 0
36.25 0.25 0
37.25 0.25 0
38.25 0.25 0
39.25 0.25 0
40.25 0.25 0
41.25 0.25 0
42.25 0.25 0
43.25 0.25 0
44.25 0.25 0
45.25 0.25 0
46.25 0.25 0
47.25 0.25 0
48.25 0.25 0
49.25 0.25 0
0.75 0.75 0
1.75 0.75 0
2.75 0.75 0
3.75 0.75 0
4.75 0.75 0
5.75 0.75 0
6.75 0.75 0
7.75 0.75 0
8.75 0.75 0
9.75 0.75 0
10.75 0.75 0
11.75 0.75 0
12.75 0.75 0
13.75 0.75 0
14.75 0.75 0
15.75 0.75 0
16.75 0.75 0
17.75 0.75 0
18.75 0.75 0
19.75 0.75 0
20.75 0.75 0
21.75 0.75 0
22.75 0.75 0
23.75 0.75 0
24.75 0.75 0
25.75 0.75 0
26.75 0.75 0
27.75 0.75 0
28.75 0.75 0
29.75 0.75 0
30.75 0.75 0
31.75 0.75 0
32.75 0.75 0
33.75 0.75 0
34.75 0.75 0
35.75 0.75 0
36.75 0.75 0
37.75 0.75 0
38.75 0.75 0
39.75 0.75 0
40.75 0.75 0
41.75 0.75 0
42.75 0.75 0
43.75 0.75 0
44.75 0.75 0
45.75 0.75 0
46.75 0.75 0
47.75 0.75 0
48.75 0.75 0
49.75 0.75 0
0.25 1.25 0
1.25 1.25 0
2.25 1.25 0
3.25 1.25 0
4.25 1.25 0
5.25 1.25 0
6.25 1.25 0
7.25 1.25 0
8.25 1.25 0
9.25 1.25 0
10.25 1.25 0
11.25 1.25 0
12.25 1.25 0
13.25 1.25 0
14.25 1.25 0
15.25 1.25 0
16.25 1.25 0
17.25 1.25 0
18.25 1.25 0
19.25 1.25 0
20.25 1.25 0
21.25 1.25 0
22.25 1.25 0
23.25 1.25 0
24.25 1.25 0
25.25 1.25 0
26.25 1.25 0
27.25 1.25 0
28.25 1.25 0
29.25 1.25 0
30.25 1.25 0
31.25 1.25 0
32.25 1.25 0
33.25 1.25 0
34.25 1.25 0
35.25 1.25 0
36.25 1.25 0
37.25 1.25 0
38.25 1.25 0
39.25 1.25 0
40.25 1.25 0
41.25 1.25 0
42.25 1.25 0
43.25 1.25 0
44.25 1.25 0
45.25 1.25 0
46.25 1.25 0
47.25 1.25 0
48.25 1.25 0
49.25 1.25 0
0.75 1.75 0
1.75 1.75 0
2.75 1.75 0
3.75 1.75 0
4.75 1.75 0
5.75 1.75 0
6.75 1.75 0
7.75 1.75 0
8.75 1.75 0
9.75 1.75 0
10.75 1.75 0
11.75 1.75 0
12.75 1.75 0
13.75 1.75 0
14.75 1.75 0
15.75 1.75 0
16.75 1.75 0
17.75 1.75 0
18.75 1.75 0
19.75 1.75 0
20.75 1.75 0
21.75 1.75 0
22.75 1.75 0
23.75 1.75 0
24.75 1.75 0
25.75 1.75 0
26.75 1.75 0
27.75 1.75 0
28.75 1.75 0
29.75 1.75 0
30.75 1.75 0
31.75 1.75 0
32.75 1.75 0
33.75 1.75 0
34.75 1.75 0
35.75 1.75 0
36.75 1.75 0
37.75 1.75 0
38.75 1.75 0
39.75 1.75 0
40.75 1.75 0
41.75 1.75 0
42.75 1.75 0
43.75 1.75 0
44.75 1.75 0
45.75 1.75 0
46.75 1.75 0
47.75 1.75 0
48.75 1.75 0
49.75 1.75 0
0.25 2.25 0
1.25 2.25 0
2.25 2.25 0
3.25 2.25 0
4.25 2.25 0
5.25 2.25 0
6.25 2.25 0
7.25 2.25 0
8.25 2.25 0
9.25 2.25 0
10.25 2.25 0
11.25 2.25 0
12.25 2.25 0
13.25 2.25 0
14.25 2.25 0
15.25 2.25 0
16.25 2.25 0
17.25 2.25 0
18.25 2.25 0
19.25 2.25 0
20.25 2.25 0
21.25 2.25 0
22.25 2.25 0
23.25 2.25 0
24.25 2.25 0
25.25 2.25 0
26.25 2.25 0
27.25 2.25 0
28.25 2.25 0
29.25 2.25 0
30.25 2.25 0
31.25 2.25 0
32.25 2.25 0
33.25 2.25 0
34.25 2.25 0
35.25 2.25 0
36.25 2.25 0
37.25 2.25 0
38.25 2.25 0
39.25 2.25 0
40.25 2.25 0
41.25 2.25 0
42.25 2.25 0
43.25 2.25 0
44.25 2.25 0
45.25 2.25 0
46.25 2.25 0
47.25 2.25 0
48.25 2.25 0
49.25 2.25 0
0.75 2.75 0
1.75 2.75 0
2.75 2.75 0
3.75 2.75 0
4.75 2.75 0
5.75 2.75 0
6.75 2.75 0
7.75 2.75 0
8.75 2.75 0
9.75 2.75 0
10.75 2.75 0
11.75 2.75 0
12.75 2.75 0
13.75 2.75 0
14.75 2.75 0
15.75 2.75 0
16.75 2.75 0
17.75 2.75 0
18.75 2.75 0
19.75 2.75 0
20.75 2.75 0
21.75 2.75 0
22.75 2.75 0
23.75 2.75 0
24.75 2.75 0
25.75 2.75 0
26.75 2.75 0
27.75 2.75 0
28.75 2.75 0
29.75 2.75 0
30.75 2.75 0
31.75 2.75 0
32.75 2.75 0
33.75 2.75 0
34.75 2.75 0
35.75 2.75 0
36.75 2.75 0
37.75 2.75 0
38.75 2.75 0
39.75 2.75 0
40.75 2.75 0
41.75 2.75 0
42.75 2.75 0
43.75 2.75 0
44.75 2.75 0
45.75 2.75 0
46.75 2.75 0
47.75 2.75 0
48.75 2.75 0
49.75 2.75 0
0.25 3.25 0
1.25 3.25 0
2.25 3.25 0
3.25 3.25 0
4.25 3.25 0
5.25 3.25 0
6.25 3.25 0
7.25 3.25 0
8.25 3.25 0
9.25 3.25 0
10.25 3.25 0
11.25 3.25 0
12.25 3.25 0
13.25 3.25 0
14.25 3.25 0
15.25 3.25 0
16.25 3.25 0
17.25 3.25 0
18.25 3.25 0
19.25 3.25 0
20.25 3.25 0
21.25 3.25 0
22.25 3.25 0
23.25 3.25 0
24.25 3.25 0
25.25 3.25 0
26.25 3.25 0
27.25 3.25 0
28.25 3.25 0
29.25 3.25 0
30.25 3.25 0
31.25 3.25 0
32.25 3.25 0
33.25 3.25 0
34.25 3.25 0
35.25 3.25 0
36.25 3.25 0
37.25 3.25 0
38.25 3.25 0
39.25 3.25 0
40.25 3.25 0
41.25 3.25 0
42.25 3.25 0
43.25 3.25 0
44.25 3.25 0
45.25 3.25 0
46.25 3.25 0
47.25 3.25 0
48.25 3.25 0
49.25 3.25 0
0.75 3.75 0
1.75 3.75 0
2.75 3.75 0
3.75 3.75 0
4.75 3.75 0
5.75 3.75 0
6.75 3.75 0
7.75 3.75 0
8.75 3.75 0
9.75 3.75 0
10.75 3.75 0
11.75 3.75 0
12.75 3.75 0
13.75 3.75 0
14.75 3.75 0
15.75 3.75 0
16.75 3.75 0
17.75 3.75 0
18.75 3.75 0
19.75 3.75 0
20.75 3.75 0
21.75 3.75 0
22.75 3.75 0
23.75 3.75 0
24.75 3.75 0
25.75 3.75 0
26.75 3.75 0
27.75 3.75 0
28.75 3.75 0
29.75 3.75 0
30.75 3.75 0
31.75 3.75 0
32.75 3.75 0
33.75 3.75 0
34.75 3.75 0
35.75 3.75 0
36.75 3.75 0
37.75 3.75 0
38.75 3.75 0
39.75 3.75 0
40.75 3.75 0
41.75 3.75 0
42.75 3.75 0
43.75 3.75 0
44.75 3.75 0
45.75 3.75 0
46.75 3.75 0
47.75 3.75 0
48.75 3.75 0
49.75 3.75 0
0.25 4.25 0
1.25 4.25 0
2.25 4.25 0
3.25 4.25 0
4.25 4.25 0
5.25 4.25 0
6.25 4.25 0
7.25 4.25 0
8.25 4.25 0
9.25 4.25 0
10.25 4.25 0
11.25 4.25 0
12.25 4.25 0
13.25 4.25 0
14.25 4.25 0
15.25 4.25 0
16.25 4.25 0
17.25 4.25 0
18.25 4.25 0
19.25 4.25 0
20.25 4.25 0
21.25 4.25 0
22.25 4.25 0
23.25 4.25 0
24.25 4.25 0
25.25 4.25 0
26.25 4.25 0
27.25 4.25 0
28.25 4.25 0
29.25 4.25 0
30.25 4.25 0
31.25 4.25 0
32.25 4.25 0
33.25 4.25 0
34.25 4.25 0
35.25 4.25 0
36.25 4.25 0
37.25 4.25 0
38.25 4.25 0
39.25 4.25 0
40.25 4.25 0
41.25 4.25 0
42.25 4.25 0
43.25 4.25 0
44.25 4.25 0
45.25 4.25 0
46.25 4.25 0
47.25 4.25 0
48.25 4.25 0
49.25 4.25 0
0.75 4.75 0
1.75 4.75 0
2.75 4.75 0
3.75 4.75 0
4.75 4.75 0
5.75 4.75 0
6.75 4.75 0
7.75 4.75 0
8.75 4.75 0
9.75 4.75 0
10.75 4.75 0
11.75 4.75 0
12.75 4.75 0
13.75 4.75 0
14.75 4.75 0
15.75 4.75 0
16.75 4.75 0
17.75 4.75 0
18.75 4.75 0
19.75 4.75 0
20.75 4.75 0
21.75 4.75 0
22.75 4.75 0
23.75 4.75 0
24.75 4.75 0
25.75 4.75 0
26.75 4.75 0
27.75 4.75 0
28.75 4.75 0
29.75 4.75 0
30.75 4.75 0
31.75 4.75 0
32.75 4.75 0
33.75 4.75 0
34.75 4.75 0
35.75 4.75 0
36.75 4.75 0
37.75 4.75 0
38.75 4.75 0
39.75 4.75 0
40.75 4.75 0
41.75 4.75 0
42.75 4.75 0
43.75 4.75 0
44.75 4.75 0
45.75 4.75 0
46.75 4.75 0
47.75 4.75 0
48.75 4.75 0
49.75 4.75 0
0.25 5.25 0
1.25 5.25 0
2.25 5.25 0
3.25 5.25 0
4.25 5.25 0
5.25 5.25 0
6.25 5.25 0
7.25 5.25 0
8.25 5.25 0
9.25 5.25 0
10.25 5.25 0
11.25 5.25 0
12.25 5.25 0
13.25 5.25 0
14.25 5.25 0
15.25 5.25 0
16.25 5.25 0
17.25 5.25 0
18.25 5.25 0
19.25 5.25 0
20.25 5.25 0
21.25 5.25 0
22.25 5.25 0
23.25 5.25 0
24.25 5.25 0
25.25 5.25 0
26.25 5.25 0
27.25 5.25 0
28.25 5.25 0
29.25 5.25 0
30.25 5.25 0
31.25 5.25 0
32.25 5.25 0
33.25 5.25 0
34.25 5.25 0
35.25 5.25 0
36.25 5.25 0
37.25 5.25 0
38.25 5.25 0
39.25 5.25 0
40.25 5.25 0
41.25 5.25 0
42.25 5.25 0
43.25 5.25 0
44.25 5.25 0
45.25 5.25 0
46.25 5.25 0
47.25 5.25 0
48.25 5.25 0
49.25 5.25 0
0.75 5.75 0
1.75 5.75 0
2.75 5.75 0
3.75 5.75 0
4.75 5.75 0
5.75 5.75 0
6.75 5.75 0
7.75 5.75 0
8.75 5.75 0
9.75 5.75 0
10.75 5.75 0
11.75 5.75 0
12.75 5.75 0
13.75 5.75 0
14.75 5.75 0
15.75 5.75 0
16.75 5.75 0
17.75 5.75 0
18.75 5.75 0
19.75 5.75 0
20.75 5.75 0
21.75 5.75 0
22.75 5.75 0
23.75 5.75 0
24.75 5.75 0
25.75 5.75 0
26.75 5.75 0
27.75 5.75 0
28.75 5.75 0
29.75 5.75 0
30.75 5.75 0
31.75 5.75 0
32.75 5.75 0
33.75 5.75 0
34.75 5.75 0
35.75 5.75 0
36.75 5.75 0
37.75 5.75 0
38.75 5.75 0
39.75 5.75 0
40.75 5.75 0
41.75 5.75 0
42.75 5.75 0
43.75 5.75 0
44.75 5.75 0
45.75 5.75 0
46.75 5.75 0
47.75 5.75 0
48.75 5.75 0
49.75 5.75 0
0.25 6.25 0
1.25 6.25 0
2.25 6.25 0
3.25 6.25 0
4.25 6.25 0
5.25 6.25 0
6.25 6.25 0
7.25 6.25 0
8.25 6.25 0
9.25 6.25 0
10.25 6.25 0
11.25 6.25 0
12.25 6.25 0
13.25 6.25 0
14.25 6.25 0
15.25 6.25 0
16.25 6.25 0
17.25 6.25 0
18.25 6.25 0
19.25 6.25 0
20.25 6.25 0
21.25 6.25 0
22.25 6.25 0
23.25 6.25 0
24.25 6.25 0
25.25 6.25 0
26.25 6.25 0
27.25 6.25 0
28.25 6.25 0
29.25 6.25 0
30.25 6.25 0
31.25 6.25 0
32.25 6.25 0
33.25 6.25 0
34.25 6.25 0
35.25 6.25 0
36.25 6.25 0
37.25 6.25 0
38.25 6.25 0
39.25 6.25 0
40.25 6.25 0
41.25 6.25 0
42.25 6.25 0
43.25 6.25 0
44.25 6.25 0
45.25 6.25 0
46.25 6.25 0
47.25 6.25 0
48.25 6.25 0
49.25 6.25 0
0.75 6.75 0
1.75 6.75 0
2.75 6.75 0
3.75 6.75 0
4.75 6.75 0
5.75 6.75 0
6.75 6.75 0
7.75 6.75 0
8.75 6.75 0
9.75 6.75 0
10.75 6.75 0
11.75 6.75 0
12.75 6.75 0
13.75 6.75 0
14.75 6.75 0
15.75 6.75 0
16.75 6.75 0
17.75 6.75 0
18.75 6.75 0
19.75 6.75 0
20.75 6.75 0
21.75 6.75 0
22.75 6.75 0
23.75 6.75 0
24.75 6.75 0
25.75 6.75 0
26.75 6.75 0
27.75 6.75 0
28.75 6.75 0
29.75 6.75 0
30.75 6.75 0
31.75 6.75 0
32.75 6.75 0
33.75 6.75 0
34.75 6.75 0
35.75 6.75 0
36.75 6.75 0
37.75 6.75 0
38.75 6.75 0
39.75 6.75 0
40.75 6.75 0
41.75 6.75 0
42.75 6.75 0
43.75 6.75 0
44.75 6.75 0
45.75 6.75 0
46.75 6.75 0
47.75 6.75 0
48.75 6.75 0
49.75 6.75 0
0.25 7.25 0
1.25 7.25 0
2.25 7.25 0
3.25 7.25 0
4.25 7.25 0
5.25 7.25 0
6.25 7.25 0
7.25 7.25 0
8.25 7.25 0
9.25 7.25 0
10.25 7.25 0
11.25 7.25 0
12.25 7.25 0
13.25 7.25 0
14.25 7.25 0
15.25 7.25 0
16.25 7.25 0
17.25 7.25 0
18.25 7.25 0
19.25 7.25 0
20.25 7.25 0
21.25 7.25 0
22.25 7.25 0
23.25 7.25 0
24.25 7.25 0
25.25 7.25 0
26.25 7.25 0
27.25 7.25 0
28.25 7.25 0
29.25 7.25 0
30.25 7.25 0
31.25 7.25 0
32.25 7.25 0
33.25 7.25 0
34.25 7.25 0
35.25 7.25 0
36.25 7.25 0
37.25 7.25 0
38.25 7.25 0
39.25 7.25 0
40.25 7.25 0
41.25 7.25 0
42.25 7.25 0
43.25 7.25 0
44.25 7.25 0
45.25 7.25 0
46.25 7.25 0
47.25 7.25 0
48.25 7.25 0
49.25 7.25 0
0.75 7.75 0
1.75 7.75 0
2.75 7.75 0
3.75 7.75 0
4.75 7.75 0
5.75 7.75 0
6.75 7.75 0
7.75 7.75 0
8.75 7.75 0
9.75 7.75 0
10.75 7.75 0
11.75 7.75 0
12.75 7.75 0
13.75 7.75 0
14.75 7.75 0
15.75 7.75 0
16.75 7.75 0
17.75 7.75 0
18.75 7.75 0
19.75 7.75 0
20.75 7.75 0
21.75 7.75 0
[...]
POINT_DATA 5000
VECTORS velocity float
0.122217 0.122217 0.98495
0.1815 0.0355217 0.982749
0.277994 -0.0679419 0.958177
0.38552 -0.195856 0.901673
0.482387 -0.343208 0.805922
0.549438 -0.496632 0.671918
0.574715 -0.640247 0.509693
0.555311 -0.7613 0.334741
0.495592 -0.853083 0.163211
0.403914 -0.914757 0.00860551
0.289931 -0.949564 -0.119449
0.163081 -0.962849 -0.215234
0.0318571 -0.960477 -0.27653
-0.096564 -0.947743 -0.304071
-0.216555 -0.928738 -0.300916
-0.324181 -0.906124 -0.271747
-0.417213 -0.881239 -0.222153
-0.494991 -0.854418 -0.157968
-0.558146 -0.825405 -0.0847352
-0.608223 -0.793733 -0.00734057
-0.647296 -0.759001 0.0701838
-0.677628 -0.721028 0.144704
-0.701429 -0.67988 0.21392
-0.720713 -0.635823 0.276227
-0.737243 -0.589241 0.330556
-0.75251 -0.540551 0.376209
-0.767731 -0.490148 0.412727
-0.783832 -0.438387 0.4398
-0.801424 -0.385584 0.457213
-0.820772 -0.332037 0.464849
-0.841773 -0.278047 0.462718
-0.863962 -0.22394 0.451021
-0.886558 -0.170073 0.43022
-0.908551 -0.116845 0.401102
-0.928833 -0.0647018 0.364805
-0.946363 -0.0141407 0.322797
-0.960316 0.0343022 0.276798
-0.970211 0.0800899 0.228641
-0.97596 0.122755 0.180091
-0.977835 0.162004 0.132641
-0.97634 0.197839 0.0872888
-0.972018 0.230685 0.044325
-0.965204 0.261478 0.00312189
-0.955765 0.291663 -0.0380182
-0.942822 0.323084 -0.0818801
-0.924382 0.357875 -0.132073
-0.896735 0.398586 -0.192339
-0.853555 0.448437 -0.265234
-0.785376 0.510701 -0.349813
-0.683211 0.584332 -0.437927
0.101461 0.101461 0.989652
0.195501 0.00560657 0.980687
0.314774 -0.111838 0.942555
0.434095 -0.250338 0.865386
0.530294 -0.401118 0.746922
0.586995 -0.549567 0.594485
0.597474 -0.681694 0.422277
0.563624 -0.788432 0.246379
0.492538 -0.86652 0.0809263
0.393307 -0.917218 -0.0634041
0.275178 -0.944498 -0.179444
0.146768 -0.953521 -0.263167
0.0157507 -0.949519 -0.313314
-0.111356 -0.937024 -0.331037
-0.229402 -0.919406 -0.31948
-0.334786 -0.89872 -0.283234
-0.42552 -0.875827 -0.227729
-0.501129 -0.85071 -0.158624
-0.562392 -0.822864 -0.0812986
-0.610968 -0.791655 -0.00050556
-0.649007 -0.756583 0.0798183
-0.678818 -0.717416 0.156588
-0.70263 -0.674205 0.227506
-0.722458 -0.627228 0.290929
-0.740048 -0.576891 0.345724
-0.756845 -0.523651 0.391121
-0.773967 -0.467954 0.426609
-0.792172 -0.410222 0.451865
-0.811821 -0.35086 0.466737
-0.832859 -0.290269 0.471263
-0.854828 -0.228859 0.465718
-0.876924 -0.167061 0.45066
-0.898111 -0.105334 0.426968
-0.917257 -0.0441922 0.395836
-0.933308 0.015768 0.358729
-0.945442 0.0738412 0.317312
-0.9532 0.129226 0.273332
-0.956554 0.181094 0.228494
-0.955888 0.228716 0.184303
-0.951885 0.271628 0.141889
-0.945335 0.309797 0.101821
-0.936879 0.343764 0.0639047
-0.92675 0.374708 0.0269958
-0.914525 0.404377 -0.0111137
-0.898863 0.434936 -0.0536213
-0.877074 0.468882 -0.104356
-0.844317 0.509116 -0.167124
-0.792421 0.558729 -0.244727
-0.708984 0.619192 -0.337554
-0.584332 0.683211 -0.437927
0.0355217 0.1815 0.982749
0.103424 0.103424 0.989246
0.22484 0.00100525 0.974395
0.361709 -0.125648 0.923785
0.487437 -0.271474 0.829883
0.579625 -0.424345 0.695677
0.625779 -0.569227 0.533274
0.624017 -0.69421 0.358714
0.579724 -0.79307 0.186978
0.501446 -0.864678 0.0297357
0.398237 -0.911281 -0.104758
0.278598 -0.936927 -0.211071
0.15025 -0.94634 -0.286121
0.0201011 -0.944133 -0.328951
-0.105852 -0.934227 -0.340611
-0.222751 -0.919475 -0.323957
-0.32712 -0.901524 -0.283278
-0.417018 -0.880921 -0.223772
-0.492002 -0.857406 -0.150961
-0.552901 -0.830287 -0.0701742
-0.601445 -0.798794 0.0138197
-0.639867 -0.762337 0.0970147
-0.670544 -0.720638 0.176216
-0.695755 -0.673746 0.248981
-0.717529 -0.621983 0.31351
-0.73758 -0.565841 0.368511
-0.757246 -0.505902 0.413088
-0.777453 -0.442784 0.446664
-0.798665 -0.377124 0.468947
-0.820864 -0.309572 0.479945
-0.843573 -0.240785 0.480008
-0.865936 -0.171415 0.469865
-0.88686 -0.102092 0.450618
-0.905188 -0.0334328 0.423694
-0.91988 0.0339203 0.39073
-0.930172 0.0992397 0.353457
-0.935698 0.161674 0.313578
-0.936549 0.220278 0.272679
-0.933257 0.274122 0.23214
-0.926689 0.32247 0.193031
-0.917859 0.364974 0.155976
-0.907676 0.401852 0.120989
-0.896673 0.434002 0.0872874
-0.884764 0.463001 0.0531373
-0.871029 0.490976 0.0158289
-0.853429 0.52045 -0.0281127
-0.828205 0.554314 -0.0825359
-0.788793 0.595771 -0.151203
-0.724211 0.647605 -0.236908
-0.619192 0.708984 -0.337554
0.00560657 0.195501 0.980687
0.118342 0.118342 0.985896
0.265073 0.0107163 0.964169
0.41622 -0.123305 0.900865
0.544654 -0.274703 0.792395
0.630542 -0.428817 0.64694
0.666128 -0.571018 0.479803
0.653849 -0.69153 0.30703
0.601453 -0.786261 0.141589
0.518021 -0.855337 -0.00724645
0.412122 -0.901356 -0.133086
0.291429 -0.928138 -0.231579
0.16287 -0.939925 -0.300024
0.032787 -0.940805 -0.33736
-0.0931244 -0.934235 -0.344286
-0.210081 -0.922691 -0.323275
-0.314553 -0.907516 -0.278337
-0.404526 -0.889005 -0.214544
-0.479537 -0.866693 -0.137433
-0.540474 -0.839724 -0.0524464
-0.589201 -0.807207 0.0354865
-0.62811 -0.768474 0.122172
-0.659734 -0.72322 0.204216
-0.686462 -0.671523 0.278973
-0.710366 -0.613788 0.344448
-0.733102 -0.55065 0.399182
-0.755834 -0.482903 0.442176
-0.779185 -0.411443 0.472848
-0.803204 -0.337238 0.491054
-0.827396 -0.261298 0.497131
-0.850833 -0.184615 0.491936
-0.872324 -0.108109 0.476827
-0.890636 -0.0325875 0.453548
-0.904703 0.0412299 0.424044
-0.913794 0.11263 0.390251
-0.917625 0.180808 0.353939
-0.916408 0.244837 0.316625
-0.910826 0.303728 0.279546
-0.901931 0.356598 0.243637
-0.89096 0.402885 0.209462
-0.879083 0.442547 0.177104
-0.867121 0.47622 0.146
-0.855293 0.505274 0.114768
-0.843011 0.531744 0.0811238
-0.828669 0.55816 0.0420009
-0.809252 0.587429 -0.00611624
-0.779503 0.622818 -0.0668788
-0.730476 0.667683 -0.143543
-0.647605 0.724211 -0.236908
-0.510701 0.785376 -0.349813
-0.0679419 0.277994 0.958177
0.00100525 0.22484 0.974395
0.145676 0.145676 0.978548
0.314276 0.0331765 0.948752
0.475891 -0.107167 0.872951
0.603731 -0.262936 0.752578
0.681928 -0.417988 0.600217
0.707643 -0.558704 0.432541
0.686707 -0.677208 0.264241
0.628152 -0.770843 0.105956
0.540935 -0.840333 -0.035069
0.432908 -0.888236 -0.153712
0.310947 -0.918003 -0.246136
0.181363 -0.933418 -0.309577
0.0501625 -0.938151 -0.342572
-0.0770149 -0.935315 -0.345333
-0.19524 -0.9271 -0.319947
-0.300773 -0.914603 -0.270255
-0.391442 -0.897898 -0.201375
-0.466768 -0.876331 -0.119049
-0.527771 -0.848892 -0.0289946
-0.576548 -0.814586 0.0635681
-0.615766 -0.772698 0.154175
-0.648199 -0.72293 0.239186
-0.6764 -0.66543 0.315733
-0.702475 -0.600742 0.381626
-0.727962 -0.529728 0.43527
-0.753737 -0.453496 0.475628
-0.779982 -0.373343 0.502238
-0.806216 -0.290686 0.515285
-0.831424 -0.206961 0.515657
-0.854283 -0.123497 0.504924
-0.873432 -0.0414088 0.485182
-0.887723 0.0384293 0.458771
-0.896411 0.115295 0.427964
-0.899263 0.18847 0.394721
-0.896586 0.257124 0.360585
-0.8892 0.320309 0.326688
-0.878336 0.377096 0.293811
-0.865448 0.426787 0.262398
-0.851965 0.469141 0.232511
-0.839003 0.504562 0.203696
-0.827083 0.534204 0.174814
-0.815921 0.559966 0.143916
-0.804248 0.584345 0.108286
-0.789554 0.610256 0.0647485
-0.767516 0.640952 0.0100295
-0.730892 0.679947 -0.0588993
-0.667683 0.730476 -0.143543
-0.558729 0.792421 -0.244727
-0.111838 0.314774 0.942555
0.0107163 0.265073 0.964169
0.183733 0.183733 0.965652
0.370263 0.066322 0.926556
0.538075 -0.0796136 0.839128
0.662383 -0.238914 0.710048
0.732224 -0.394935 0.554864
0.749213 -0.535388 0.389923
0.721453 -0.65393 0.227776
0.658362 -0.748772 0.0768194
0.568335 -0.820802 -0.0572577
0.458409 -0.872316 -0.170078
0.334751 -0.906338 -0.257864
0.203241 -0.92624 -0.317448
0.0697819 -0.935354 -0.34676
-0.0598029 -0.936528 -0.345454
-0.180242 -0.931719 -0.315298
-0.287459 -0.921796 -0.260116
-0.379103 -0.906618 -0.185271
-0.454736 -0.88534 -0.0968904
-0.51562 -0.856816 -0.00110964
-0.564219 -0.819969 0.0964757
-0.603581 -0.774064 0.191087
-0.636797 -0.718851 0.278824
-0.666586 -0.654601 0.356596
-0.69503 -0.582076 0.422044
-0.723416 -0.502473 0.473486
-0.752169 -0.417356 0.509956
-0.780875 -0.328564 0.531301
-0.80844 -0.238055 0.538288
-0.833374 -0.147699 0.53261
-0.854128 -0.0590553 0.5167
-0.869415 0.0267256 0.493359
-0.878433 0.108848 0.465305
-0.88096 0.186672 0.434815
-0.877379 0.25951 0.40356
-0.868631 0.326531 0.372637
-0.856108 0.38684 0.342685
-0.841479 0.439675 0.314005
-0.82643 0.484654 0.286574
-0.812372 0.521984 0.259971
-0.800141 0.552615 0.233217
-0.789761 0.578281 0.204617
-0.780264 0.601408 0.171746
-0.769512 0.624907 0.131691
-0.753831 0.651995 0.0814975
-0.727227 0.686147 0.0185205
-0.679947 0.730892 -0.0588993
-0.595771 0.788793 -0.151203
-0.448437 0.853555 -0.265234
-0.195856 0.38552 0.901673
-0.125648 0.361709 0.923785
0.0331765 0.314276 0.948752
0.230476 0.230476 0.94539
0.430207 0.108012 0.896245
0.59985 -0.0428623 0.798963
0.718346 -0.205029 0.664787
0.779918 -0.362145 0.51047
0.789688 -0.503356 0.35075
0.756928 -0.623489 0.195758
0.690765 -0.721211 0.0519478
0.598759 -0.797306 -0.0761002
0.487097 -0.853675 -0.184324
0.361339 -0.892896 -0.268646
0.227116 -0.917959 -0.325222
0.090451 -0.931913 -0.351221
-0.042428 -0.93738 -0.345715
-0.165733 -0.936096 -0.310253
-0.274971 -0.928697 -0.248823
-0.367632 -0.914813 -0.167226
-0.443418 -0.893407 -0.072142
-0.503978 -0.863203 0.0297717
-0.552273 -0.823068 0.132492
-0.591835 -0.772277 0.230911
-0.626093 -0.71067 0.320865
-0.657881 -0.638709 0.399054
-0.689111 -0.557482 0.462968
-0.720623 -0.468683 0.510919
-0.752177 -0.374519 0.542186
-0.782629 -0.27752 0.557203
-0.810285 -0.180226 0.557635
-0.83335 -0.0848249 0.546198
-0.850335 0.00709907 0.526194
-0.860328 0.0945663 0.500891
-0.8631 0.176977 0.473009
-0.859091 0.253806 0.44446
-0.84935 0.324398 0.416379
-0.835421 0.387962 0.389304
-0.819173 0.443743 0.363383
-0.802548 0.491274 0.338478
-0.787253 0.53061 0.314144
-0.774448 0.562516 0.289494
-0.764476 0.588551 0.263031
-0.756666 0.611039 0.232569
-0.749193 0.632873 0.195402
-0.738844 0.657249 0.148769
-0.720508 0.687539 0.0903228
-0.686147 0.727227 0.0185205
-0.622818 0.779503 -0.0668788
-0.509116 0.844317 -0.167124
-0.250338 0.434095 0.865386
-0.123305 0.41622 0.900865
0.066322 0.370263 0.926556
0.283292 0.283292 0.916237
0.490945 0.155711 0.857162
0.65843 0.00064641 0.752641
0.769699 -0.163694 0.617063
0.82375 -0.321885 0.466719
0.828043 -0.464487 0.314002
0.792089 -0.587205 0.166689
0.724249 -0.688901 0.0296413
0.631077 -0.77009 -0.0932898
0.517902 -0.832206 -0.198019
0.389768 -0.877356 -0.279872
0.252221 -0.908164 -0.334099
0.111617 -0.92742 -0.356979
-0.0252012 -0.937521 -0.347014
-0.151781 -0.939966 -0.305657
-0.263168 -0.935123 -0.237251
-0.356752 -0.922364 -0.148231
-0.432518 -0.900453 -0.0459663
-0.492654 -0.867993 0.0622872
-0.540753 -0.823813 0.170057
-0.58089 -0.767225 0.271906
-0.616803 -0.698205 0.363406
-0.651295 -0.617498 0.441033
-0.685876 -0.526696 0.502161
-0.720657 -0.428225 0.545232
-0.754519 -0.325167 0.570059
-0.785547 -0.220858 0.578046
-0.811622 -0.118323 0.572075
-0.830974 -0.0198084 0.555959
-0.842536 0.0733599 0.533622
-0.846047 0.160547 0.50836
-0.842005 0.241388 0.482452
-0.831564 0.315449 0.457158
-0.816416 0.382113 0.43296
-0.798623 0.440697 0.409862
-0.780371 0.490707 0.387593
-0.763662 0.532093 0.365646
-0.749986 0.565463 0.343181
-0.740015 0.592209 0.31885
-0.733389 0.614531 0.290674
-0.72857 0.635284 0.256125
-0.722699 0.657669 0.212551
-0.711289 0.684971 0.157745
-0.687539 0.720508 0.0903228
-0.640952 0.767516 0.0100295
-0.554314 0.828205 -0.0825359
-0.398586 0.896735 -0.192339
-0.343208 0.482387 0.805922
-0.271474 0.487437 0.829883
-0.107167 0.475891 0.872951
0.108012 0.430207 0.896245
0.33918 0.33918 0.877448
0.549418 0.206679 0.809582
0.711556 0.0484102 0.70096
0.815081 -0.117219 0.567365
0.862838 -0.276139 0.423389
0.863499 -0.420268 0.278828
0.826121 -0.545991 0.139349
0.757984 -0.652217 0.00854291
0.664513 -0.739109 -0.110183
0.55016 -0.807582 -0.21245
0.419519 -0.859252 -0.292728
0.278204 -0.896368 -0.345147
0.133108 -0.921446 -0.364992
-0.00810551 -0.936633 -0.35022
-0.138193 -0.943129 -0.302342
-0.25173 -0.940976 -0.226266
-0.346112 -0.929248 -0.129244
-0.421767 -0.906495 -0.0194512
-0.481596 -0.871206 0.0952167
-0.529936 -0.822176 0.207835
-0.571418 -0.758778 0.31263
-0.609969 -0.681184 0.404878
-0.648098 -0.590585 0.480809
-0.686557 -0.489352 0.537748
-0.724406 -0.380983 0.574532
-0.759515 -0.269673 0.591957
-0.789354 -0.159525 0.592851
-0.811771 -0.0537507 0.581497
-0.825479 0.0457373 0.562576
-0.830175 0.138139 0.540117
-0.826424 0.223227 0.516907
-0.815504 0.300823 0.494427
-0.799259 0.370548 0.473159
-0.779938 0.431861 0.452982
-0.759967 0.484298 0.433481
-0.741639 0.52775 0.414068
-0.72677 0.562704 0.393916
-0.716376 0.590406 0.371789
-0.710414 0.61292 0.345892
-0.707631 0.633042 0.313872
-0.705468 0.65399 0.273153
-0.699888 0.679025 0.221546
-0.684971 0.711289 0.157745
-0.651995 0.753831 0.0814975
-0.587429 0.809252 -0.00611624
-0.468882 0.877074 -0.104356
-0.401118 0.530294 0.746922
-0.274703 0.544654 0.792395
-0.0796136 0.538075 0.839128
0.155711 0.490945 0.857162
0.39511 0.39511 0.829323
0.603115 0.258306 0.754672
0.757737 0.0981387 0.645138
0.853748 -0.06761 0.516278
0.896693 -0.226509 0.380309
0.895546 -0.371769 0.244512
0.858452 -0.500353 0.112727
0.791404 -0.611166 -0.0124785
0.698582 -0.703999 -0.127938
0.583507 -0.779223 -0.228759
0.450359 -0.837928 -0.308307
0.304957 -0.881955 -0.359384
0.154949 -0.9135 -0.376177
0.00901777 -0.934379 -0.356166
-0.124697 -0.945403 -0.301103
-0.240333 -0.946197 -0.216682
-0.335435 -0.935484 -0.111144
-0.411073 -0.911579 0.00644256
-0.471032 -0.872849 0.127527
-0.520476 -0.818053 0.244734
-0.564524 -0.746638 0.351915
-0.607032 -0.65909 0.443973
-0.649792 -0.557332 0.516868
-0.692322 -0.44496 0.568067
-0.732354 -0.326959 0.59729
-0.766849 -0.208739 0.606935
-0.793132 -0.0948575 0.601617
-0.809609 0.0118259 0.586851
-0.815919 0.11014 0.567579
-0.812728 0.19993 0.547267
-0.801475 0.281304 0.527737
-0.784179 0.354181 0.509527
-0.763287 0.418234 0.492416
-0.741458 0.473088 0.475845
-0.721269 0.518624 0.459129
-0.704867 0.555247 0.441434
-0.693608 0.584078 0.421616
-0.687782 0.607055 0.398045
-0.686424 0.626894 0.368546
-0.687238 0.646827 0.330635
-0.686536 0.670147 0.282084
-0.679025 0.699888 0.221546
-0.657249 0.738844 0.148769
-0.610256 0.789554 0.0647485
-0.52045 0.853429 -0.0281127
-0.357875 0.924382 -0.132073
-0.496632 0.549438 0.671918
-0.424345 0.579625 0.695677
-0.262936 0.603731 0.752578
-0.0428623 0.59985 0.798963
0.206679 0.549418 0.809582
0.44845 0.44845 0.773166
0.650356 0.308439 0.694192
0.796293 0.147985 0.58653
0.885498 -0.0164255 0.464353
0.925146 -0.174142 0.337313
0.923887 -0.319613 0.210429
0.888694 -0.45037 0.0859598
0.824126 -0.565361 -0.0344001
0.732984 -0.664044 -0.147585
0.617749 -0.746248 -0.247991
0.482193 -0.812495 -0.32763
0.332478 -0.864153 -0.377752
0.177232 -0.903003 -0.391376
0.026357 -0.9304 -0.365597
-0.111034 -0.946618 -0.302632
-0.228724 -0.95075 -0.20919
-0.324603 -0.941102 -0.0946561
-0.40061 -0.915726 0.0309566
-0.461577 -0.872836 0.158443
-0.513518 -0.811128 0.279948
-0.561831 -0.730169 0.388843
-0.609828 -0.631 0.47953
-0.657943 -0.516794 0.547755
-0.703959 -0.393014 0.591593
-0.744253 -0.26648 0.612434
-0.775416 -0.143561 0.614915
-0.795409 -0.0285697 0.6054
-0.803798 0.0766174 0.589947
-0.801407 0.171797 0.572916
-0.789899 0.257375 0.556612
-0.771522 0.333639 0.5417
-0.748938 0.400543 0.52788
-0.72505 0.457869 0.514451
-0.702718 0.505534 0.500623
-0.68441 0.543902 0.485544
-0.671832 0.573999 0.468153
-0.665606 0.597649 0.446973
-0.66506 0.61748 0.420016
-0.668149 0.63672 0.384921
-0.671457 0.658734 0.339435
-0.670147 0.686536 0.282084
-0.657669 0.722699 0.212551
-0.624907 0.769512 0.131691
-0.55816 0.828669 0.0420009
-0.434936 0.898863 -0.0536213
-0.549567 0.586995 0.594485
-0.428817 0.630542 0.64694
-0.238914 0.662383 0.710048
0.00064641 0.65843 0.752641
0.258306 0.603115 0.754672
0.497274 0.497274 0.71094
0.690348 0.355574 0.630069
0.827205 0.196662 0.526362
0.9105 0.0352886 0.412
0.948216 -0.1197 0.294207
0.948334 -0.263967 0.176021
0.916533 -0.395688 0.0582927
0.855824 -0.513997 -0.0580766
0.767455 -0.618144 -0.170034
0.652713 -0.707449 -0.271076
0.514922 -0.781819 -0.351589
0.36074 -0.842037 -0.401048
0.200014 -0.889309 -0.411248
0.0440576 -0.924325 -0.379054
-0.0970157 -0.946622 -0.3074
-0.216785 -0.954616 -0.204237
-0.313735 -0.946116 -0.0802155
-0.390925 -0.918856 0.0536792
-0.454371 -0.870841 0.187571
-0.510826 -0.800672 0.313018
-0.565513 -0.70818 0.422701
-0.620411 -0.595467 0.510402
-0.673781 -0.467815 0.571986
-0.721396 -0.333279 0.607053
-0.758825 -0.200478 0.619672
-0.783346 -0.0758808 0.616937
-0.794406 0.0374008 0.606234
-0.793069 0.138893 0.593086
-0.781338 0.229291 0.580462
-0.761769 0.309318 0.569237
-0.737291 0.379293 0.559053
-0.711065 0.43922 0.549064
-0.686244 0.489108 0.538371
-0.665618 0.529312 0.526099
-0.65124 0.560798 0.511266
-0.644066 0.585297 0.492551
-0.643722 0.60535 0.46816
-0.648398 0.62416 0.435894
-0.654902 0.645168 0.393525
-0.658734 0.671457 0.339435
-0.65399 0.705468 0.273153
-0.632873 0.749193 0.195402
-0.584345 0.804248 0.108286
-0.490976 0.871029 0.0158289
-0.323084 0.942822 -0.0818801
-0.640247 0.574715 0.509693
-0.569227 0.625779 0.533274
-0.417988 0.681928 0.600217
-0.205029 0.718346 0.664787
0.0484102 0.711556 0.70096
0.308439 0.650356 0.694192
0.540486 0.540486 0.644786
0.723035 0.398875 0.56402
0.850876 0.243437 0.465563
0.929101 0.0869839 0.359452
0.965973 -0.063386 0.250757
0.968677 -0.204562 0.140783
0.941581 -0.335528 0.0290802
0.886056 -0.455862 -0.0842266
0.801592 -0.564819 -0.196035
0.688062 -0.661302 -0.298748
0.548287 -0.744545 -0.380834
0.389571 -0.814576 -0.429767
0.223237 -0.871762 -0.436114
0.0621621 -0.915837 -0.39671
-0.082585 -0.945332 -0.315479
-0.204614 -0.957811 -0.20182
-0.303317 -0.950479 -0.0677463
-0.383123 -0.920667 0.0747565
-0.451267 -0.866091 0.215044
-0.514884 -0.785282 0.343841
-0.578155 -0.678726 0.452845
-0.640574 -0.550559 0.535304
-0.697522 -0.409366 0.588118
-0.743182 -0.266228 0.613843
-0.773712 -0.130657 0.619918
-0.788312 -0.00782139 0.615226
-0.788391 0.101139 0.606803
-0.77647 0.19715 0.59852
-0.755541 0.281448 0.591561
-0.728881 0.354815 0.585525
-0.699953 0.417554 0.579409
-0.672217 0.469812 0.57219
-0.648799 0.511978 0.562974
-0.632096 0.544984 0.550861
-0.623405 0.570495 0.534698
-0.622642 0.590975 0.512899
-0.628229 0.609587 0.483458
-0.637157 0.629828 0.444238
-0.645168 0.654902 0.393525
-0.646827 0.687238 0.330635
-0.635284 0.72857 0.256125
-0.601408 0.780264 0.171746
-0.531744 0.843011 0.0811238
-0.404377 0.914525 -0.0111137
-0.681694 0.597474 0.422277
-0.571018 0.666128 0.479803
-0.394935 0.732224 0.554864
-0.163694 0.769699 0.617063
0.0981387 0.757737 0.645138
0.355574 0.690348 0.630069
0.577723 0.577723 0.576604
0.748831 0.438069 0.497341
0.867884 0.28805 0.404727
0.941644 0.138544 0.306778
0.97839 -0.0050001 0.206708
0.984537 -0.140751 0.104287
0.963208 -0.268748 -0.0021836
0.914072 -0.389385 -0.113365
0.834637 -0.502272 -0.226062
0.723107 -0.606055 -0.331381
0.581713 -0.699224 -0.415567
0.418554 -0.780779 -0.463893
0.246656 -0.849854 -0.465735
0.0805408 -0.904807 -0.418136
-0.0679166 -0.942827 -0.32629
-0.192696 -0.960404 -0.201227
-0.294441 -0.954003 -0.0564141
-0.379132 -0.920447 0.0950566
-0.455017 -0.857102 0.241526
-0.52881 -0.762635 0.372489
-0.602229 -0.63908 0.478432
-0.670973 -0.494225 0.552754
-0.727565 -0.341188 0.59518
-0.766334 -0.193418 0.612635
-0.785858 -0.0593788 0.61555
-0.787989 0.0584239 0.612911
-0.776007 0.160997 0.60983
-0.75355 0.250182 0.607924
-0.724362 0.327339 0.606752
-0.69228 0.393161 0.605121
-0.661113 0.447991 0.601859
-0.634344 0.49228 0.596044
-0.614732 0.526958 0.586873
-0.603911 0.553648 0.573381
-0.602092 0.574751 0.554208
-0.607915 0.593386 0.527572
-0.618525 0.613076 0.491492
-0.629828 0.637157 0.444238
-0.63672 0.668149 0.384921
-0.633042 0.707631 0.313872
-0.611039 0.756666 0.232569
-0.559966 0.815921 0.143916
-0.463001 0.884764 0.0531373
-0.291663 0.955765 -0.0380182