# vtk DataFile Version 2.0
tmp/0.000.00-10.000.000.001.0021.vtk
ASCII
DATASET UNSTRUCTURED_GRID
POINTS 5000 float
0.25 0.25 0
1.25 0.25 0
2.25 0.25 0
3.25 0.25 0
4.25 0.25 0
5.25 0.25 0
6.25 0.25 0
7.25 0.25 0
8.25 0.25 0
9.25 0.25 0
10.25 0.25 0
11.25 0.25 0
12.25 0.25 0
13.25 0.25 0
14.25 0.25 0
15.25 0.25 0
16.25 0.25 0
17.25 0.25 0
18.25 0.25 0
19.25 0.25 0
20.25 0.25 0
21.25 0.25 0
22.25 0.25 0
23.25 0.25 0
24.25 0.25 0
25.25 0.25 0
26.25 0.25 0
27.25 0.25 0
28.25 0.25 0
29.25 0.25 0
30.25 0.25 0
31.25 0.25 0
32.25 0.25 0
33.25 0.25 0
34.25 0.25 0
35.25 0.25 0
36.25 0.25 0
37.25 0.25 0
38.25 0.25 0
39.25 0.25 0
40.25 0.25 0
41.25 0.25 0
42.25 0.25 0
43.25 0.25 0
44.25 0.25 0
45.25 0.25 0
46.25 0.25 0
47.25 0.25 0
48.25 0.25 0
49.25 0.25 0
0.75 0.75 0
1.75 0.75 0
2.75 0.75 0
3.75 0.75 0
4.75 0.75 0
5.75 0.75 0
6.75 0.75 0
7.75 0.75 0
8.75 0.75 0
9.75 0.75 0
10.75 0.75 0
11.75 0.75 0
12.75 0.75 0
13.75 0.75 0
14.75 0.75 0
15.75 0.75 0
16.75 0.75 0
17.75 0.75 0
18.75 0.75 0
19.75 0.75 0
20.75 0.75 0
21.75 0.75 0
22.75 0.75 0
23.75 0.75 0
24.75 0.75 0
25.75 0.75 0
26.75 0.75 0
27.75 0.75 0
28.75 0.75 0
29.75 0.75 0
30.75 0.75 0
31.75 0.75 0
32.75 0.75 0
33.75 0.75 0
34.75 0.75 0
35.75 0.75 0
36.75 0.75 0
37.75 0.75 0
38.75 0.75 0
39.75 0.75 0
40.75 0.75 0
41.75 0.75 0
42.75 0.75 0
43.75 0.75 0
44.75 0.75 0
45.75 0.75 0
46.75 0.75 0
47.75 0.75 0
48.75 0.75 0
49.75 0.75 0
0.25 1.25 0
1.25 1.25 0
2.25 1.25 0
3.25 1.25 0
4.25 1.25 0
5.25 1.25 0
6.25 1.25 0
7.25 1.25 0
8.25 1.25 0
9.25 1.25 0
10.25 1.25 0
11.25 1.25 0
12.25 1.25 0
13.25 1.25 0
14.25 1.25 0
15.25 1.25 0
16.25 1.25 0
17.25 1.25 0
18.25 1.25 0
19.25 1.25 0
20.25 1.25 0
21.25 1.25 0
22.25 1.25 0
23.25 1.25 0
24.25 1.25 0
25.25 1.25 0
26.25 1.25 0
27.25 1.25 0
28.25 1.25 0
29.25 1.25 0
30.25 1.25 0
31.25 1.25 0
32.25 1.25 0
33.25 1.25 0
34.25 1.25 0
35.25 1.25 0
36.25 1.25 0
37.25 1.25 0
38.25 1.25 0
39.25 1.25 0
40.25 1.25 0
41.25 1.25 0
42.25 1.25 0
43.25 1.25 0
44.25 1.25 0
45.25 1.25 0
46.25 1.25 0
47.25 1.25 0
48.25 1.25 0
49.25 1.25 0
0.75 1.75 0
1.75 1.75 0
2.75 1.75 0
3.75 1.75 0
4.75 1.75 0
5.75 1.75 0
6.75 1.75 0
7.75 1.75 0
8.75 1.75 0
9.75 1.75 0
10.75 1.75 0
11.75 1.75 0
12.75 1.75 0
13.75 1.75 0
14.75 1.75 0
15.75 1.75 0
16.75 1.75 0
17.75 1.75 0
18.75 1.75 0
19.75 1.75 0
20.75 1.75 0
21.75 1.75 0
22.75 1.75 0
23.75 1.75 0
24.75 1.75 0
25.75 1.75 0
26.75 1.75 0
27.75 1.75 0
28.75 1.75 0
29.75 1.75 0
30.75 1.75 0
31.75 1.75 0
32.75 1.75 0
33.75 1.75 0
34.75 1.75 0
35.75 1.75 0
36.75 1.75 0
37.75 1.75 0
38.75 1.75 0
39.75 1.75 0
40.75 1.75 0
41.75 1.75 0
42.75 1.75 0
43.75 1.75 0
44.75 1.75 0
45.75 1.75 0
46.75 1.75 0
47.75 1.75 0
48.75 1.75 0
49.75 1.75 0
0.25 2.25 0
1.25 2.25 0
2.25 2.25 0
3.25 2.25 0
4.25 2.25 0
5.25 2.25 0
6.25 2.25 0
7.25 2.25 0
8.25 2.25 0
9.25 2.25 0
10.25 2.25 0
11.25 2.25 0
12.25 2.25 0
13.25 2.25 0
14.25 2.25 0
15.25 2.25 0
16.25 2.25 0
17.25 2.25 0
18.25 2.25 0
19.25 2.25 0
20.25 2.25 0
21.25 2.25 0
22.25 2.25 0
23.25 2.25 0
24.25 2.25 0
25.25 2.25 0
26.25 2.25 0
27.25 2.25 0
28.25 2.25 0
29.25 2.25 0
30.25 2.25 0
31.25 2.25 0
32.25 2.25 0
33.25 2.25 0
34.25 2.25 0
35.25 2.25 0
36.25 2.25 0
37.25 2.25 0
38.25 2.25 0
39.25 2.25 0
40.25 2.25 0
41.25 2.25 0
42.25 2.25 0
43.25 2.25 0
44.25 2.25 0
45.25 2.25 0
46.25 2.25 0
47.25 2.25 0
48.25 2.25 0
49.25 2.25 0
0.75 2.75 0
1.75 2.75 0
2.75 2.75 0
3.75 2.75 0
4.75 2.75 0
5.75 2.75 0
6.75 2.75 0
7.75 2.75 0
8.75 2.75 0
9.75 2.75 0
10.75 2.75 0
11.75 2.75 0
12.75 2.75 0
13.75 2.75 0
14.75 2.75 0
15.75 2.75 0
16.75 2.75 0
17.75 2.75 0
18.75 2.75 0
19.75 2.75 0
20.75 2.75 0
21.75 2.75 0
22.75 2.75 0
23.75 2.75 0
24.75 2.75 0
25.75 2.75 0
26.75 2.75 0
27.75 2.75 0
28.75 2.75 0
29.75 2.75 0
30.75 2.75 0
31.75 2.75 0
32.75 2.75 0
33.75 2.75 0
34.75 2.75 0
35.75 2.75 0
36.75 2.75 0
37.75 2.75 0
38.75 2.75 0
39.75 2.75 0
40.75 2.75 0
41.75 2.75 0
42.75 2.75 0
43.75 2.75 0
44.75 2.75 0
45.75 2.75 0
46.75 2.75 0
47.75 2.75 0
48.75 2.75 0
49.75 2.75 0
0.25 3.25 0
1.25 3.25 0
2.25 3.25 0
3.25 3.25 0
4.25 3.25 0
5.25 3.25 0
6.25 3.25 0
7.25 3.25 0
8.25 3.25 0
9.25 3.25 0
10.25 3.25 0
11.25 3.25 0
12.25 3.25 0
13.25 3.25 0
14.25 3.25 0
15.25 3.25 0
16.25 3.25 0
17.25 3.25 0
18.25 3.25 0
19.25 3.25 0
20.25 3.25 0
21.25 3.25 0
22.25 3.25 0
23.25 3.25 0
24.25 3.25 0
25.25 3.25 0
26.25 3.25 0
27.25 3.25 0
28.25 3.25 0
29.25 3.25 0
30.25 3.25 0
31.25 3.25 0
32.25 3.25 0
33.25 3.25 0
34.25 3.25 0
35.25 3.25 0
36.25 3.25 0
37.25 3.25 0
38.25 3.25 0
39.25 3.25 0
40.25 3.25 0
41.25 3.25 0
42.25 3.25 0
43.25 3.25 0
44.25 3.25 0
45.25 3.25 0
46.25 3.25 0
47.25 3.25 0
48.25 3.25 0
49.25 3.25 0
0.75 3.75 0
1.75 3.75 0
2.75 3.75 0
3.75 3.75 0
4.75 3.75 0
5.75 3.75 0
6.75 3.75 0
7.75 3.75 0
8.75 3.75 0
9.75 3.75 0
10.75 3.75 0
11.75 3.75 0
12.75 3.75 0
13.75 3.75 0
14.75 3.75 0
15.75 3.75 0
16.75 3.75 0
17.75 3.75 0
18.75 3.75 0
19.75 3.75 0
20.75 3.75 0
21.75 3.75 0
22.75 3.75 0
23.75 3.75 0
24.75 3.75 0
25.75 3.75 0
26.75 3.75 0
27.75 3.75 0
28.75 3.75 0
29.75 3.75 0
30.75 3.75 0
31.75 3.75 0
32.75 3.75 0
33.75 3.75 0
34.75 3.75 0
35.75 3.75 0
36.75 3.75 0
37.75 3.75 0
38.75 3.75 0
39.75 3.75 0
40.75 3.75 0
41.75 3.75 0
42.75 3.75 0
43.75 3.75 0
44.75 3.75 0
45.75 3.75 0
46.75 3.75 0
47.75 3.75 0
48.75 3.75 0
49.75 3.75 0
0.25 4.25 0
1.25 4.25 0
2.25 4.25 0
3.25 4.25 0
4.25 4.25 0
5.25 4.25 0
6.25 4.25 0
7.25 4.25 0
8.25 4.25 0
9.25 4.25 0
10.25 4.25 0
11.25 4.25 0
12.25 4.25 0
13.25 4.25 0
14.25 4.25 0
15.25 4.25 0
16.25 4.25 0
17.25 4.25 0
18.25 4.25 0
19.25 4.25 0
20.25 4.25 0
21.25 4.25 0
22.25 4.25 0
23.25 4.25 0
24.25 4.25 0
25.25 4.25 0
26.25 4.25 0
27.25 4.25 0
28.25 4.25 0
29.25 4.25 0
30.25 4.25 0
31.25 4.25 0
32.25 4.25 0
33.25 4.25 0
34.25 4.25 0
35.25 4.25 0
36.25 4.25 0
37.25 4.25 0
38.25 4.25 0
39.25 4.25 0
40.25 4.25 0
41.25 4.25 0
42.25 4.25 0
43.25 4.25 0
44.25 4.25 0
45.25 4.25 0
46.25 4.25 0
47.25 4.25 0
48.25 4.25 0
49.25 4.25 0
0.75 4.75 0
1.75 4.75 0
2.75 4.75 0
3.75 4.75 0
4.75 4.75 0
5.75 4.75 0
6.75 4.75 0
7.75 4.75 0
8.75 4.75 0
9.75 4.75 0
10.75 4.75 0
11.75 4.75 0
12.75 4.75 0
13.75 4.75 0
14.75 4.75 0
15.75 4.75 0
16.75 4.75 0
17.75 4.75 0
18.75 4.75 0
19.75 4.75 0
20.75 4.75 0
21.75 4.75 0
22.75 4.75 0
23.75 4.75 0
24.75 4.75 0
25.75 4.75 0
26.75 4.75 0
27.75 4.75 0
28.75 4.75 0
29.75 4.75 0
30.75 4.75 0
31.75 4.75 0
32.75 4.75 0
33.75 4.75 0
34.75 4.75 0
35.75 4.75 0
36.75 4.75 0
37.75 4.75 0
38.75 4.75 0
39.75 4.75 0
40.75 4.75 0
41.75 4.75 0
42.75 4.75 0
43.75 4.75 0
44.75 4.75 0
45.75 4.75 0
46.75 4.75 0
47.75 4.75 0
48.75 4.75 0
49.75 4.75 0
0.25 5.25 0
1.25 5.25 0
2.25 5.25 0
3.25 5.25 0
4.25 5.25 0
5.25 5.25 0
6.25 5.25 0
7.25 5.25 0
8.25 5.25 0
9.25 5.25 0
10.25 5.25 0
11.25 5.25 0
12.25 5.25 0
13.25 5.25 0
14.25 5.25 0
15.25 5.25 0
16.25 5.25 0
17.25 5.25 0
18.25 5.25 0
19.25 5.25 0
20.25 5.25 0
21.25 5.25 0
22.25 5.25 0
23.25 5.25 0
24.25 5.25 0
25.25 5.25 0
26.25 5.25 0
27.25 5.25 0
28.25 5.25 0
29.25 5.25 0
30.25 5.25 0
31.25 5.25 0
32.25 5.25 0
33.25 5.25 0
34.25 5.25 0
35.25 5.25 0
36.25 5.25 0
37.25 5.25 0
38.25 5.25 0
39.25 5.25 0
40.25 5.25 0
41.25 5.25 0
42.25 5.25 0
43.25 5.25 0
44.25 5.25 0
45.25 5.25 0
46.25 5.25 0
47.25 5.25 0
48.25 5.25 0
49.25 5.25 0
0.75 5.75 0
1.75 5.75 0
2.75 5.75 0
3.75 5.75 0
4.75 5.75 0
5.75 5.75 0
6.75 5.75 0
7.75 5.75 0
8.75 5.75 0
9.75 5.75 0
10.75 5.75 0
11.75 5.75 0
12.75 5.75 0
13.75 5.75 0
14.75 5.75 0
15.75 5.75 0
16.75 5.75 0
17.75 5.75 0
18.75 5.75 0
19.75 5.75 0
20.75 5.75 0
21.75 5.75 0
22.75 5.75 0
23.75 5.75 0
24.75 5.75 0
25.75 5.75 0
26.75 5.75 0
27.75 5.75 0
28.75 5.75 0
29.75 5.75 0
30.75 5.75 0
31.75 5.75 0
32.75 5.75 0
33.75 5.75 0
34.75 5.75 0
35.75 5.75 0
36.75 5.75 0
37.75 5.75 0
38.75 5.75 0
39.75 5.75 0
40.75 5.75 0
41.75 5.75 0
42.75 5.75 0
43.75 5.75 0
44.75 5.75 0
45.75 5.75 0
46.75 5.75 0
47.75 5.75 0
48.75 5.75 0
49.75 5.75 0
0.25 6.25 0
1.25 6.25 0
2.25 6.25 0
3.25 6.25 0
4.25 6.25 0
5.25 6.25 0
6.25 6.25 0
7.25 6.25 0
8.25 6.25 0
9.25 6.25 0
10.25 6.25 0
11.25 6.25 0
12.25 6.25 0
13.25 6.25 0
14.25 6.25 0
15.25 6.25 0
16.25 6.25 0
17.25 6.25 0
18.25 6.25 0
19.25 6.25 0
20.25 6.25 0
21.25 6.25 0
22.25 6.25 0
23.25 6.25 0
24.25 6.25 0
25.25 6.25 0
26.25 6.25 0
27.25 6.25 0
28.25 6.25 0
29.25 6.25 0
30.25 6.25 0
31.25 6.25 0
32.25 6.25 0
33.25 6.25 0
34.25 6.25 0
35.25 6.25 0
36.25 6.25 0
37.25 6.25 0
38.25 6.25 0
39.25 6.25 0
40.25 6.25 0
41.25 6.25 0
42.25 6.25 0
43.25 6.25 0
44.25 6.25 0
45.25 6.25 0
46.25 6.25 0
47.25 6.25 0
48.25 6.25 0
49.25 6.25 0
0.75 6.75 0
1.75 6.75 0
2.75 6.75 0
3.75 6.75 0
4.75 6.75 0
5.75 6.75 0
6.75 6.75 0
7.75 6.75 0
8.75 6.75 0
9.75 6.75 0
10.75 6.75 0
11.75 6.75 0
12.75 6.75 0
13.75 6.75 0
14.75 6.75 0
15.75 6.75 0
16.75 6.75 0
17.75 6.75 0
18.75 6.75 0
19.75 6.75 0
20.75 6.75 0
21.75 6.75 0
22.75 6.75 0
23.75 6.75 0
24.75 6.75 0
25.75 6.75 0
26.75 6.75 0
27.75 6.75 0
28.75 6.75 0
29.75 6.75 0
30.75 6.75 0
31.75 6.75 0
32.75 6.75 0
33.75 6.75 0
34.75 6.75 0
35.75 6.75 0
36.75 6.75 0
37.75 6.75 0
38.75 6.75 0
39.75 6.75 0
40.75 6.75 0
41.75 6.75 0
42.75 6.75 0
43.75 6.75 0
44.75 6.75 0
45.75 6.75 0
46.75 6.75 0
47.75 6.75 0
48.75 6.75 0
49.75 6.75 0
0.25 7.25 0
1.25 7.25 0
2.25 7.25 0
3.25 7.25 0
4.25 7.25 0
5.25 7.25 0
6.25 7.25 0
7.25 7.25 0
8.25 7.25 0
9.25 7.25 0
10.25 7.25 0
11.25 7.25 0
12.25 7.25 0
13.25 7.25 0
14.25 7.25 0
15.25 7.25 0
16.25 7.25 0
17.25 7.25 0
18.25 7.25 0
19.25 7.25 0
20.25 7.25 0
21.25 7.25 0
22.25 7.25 0
23.25 7.25 0
24.25 7.25 0
25.25 7.25 0
26.25 7.25 0
27.25 7.25 0
28.25 7.25 0
29.25 7.25 0
30.25 7.25 0
31.25 7.25 0
32.25 7.25 0
33.25 7.25 0
34.25 7.25 0
35.25 7.25 0
36.25 7.25 0
37.25 7.25 0
38.25 7.25 0
39.25 7.25 0
40.25 7.25 0
41.25 7.25 0
42.25 7.25 0
43.25 7.25 0
44.25 7.25 0
45.25 7.25 0
46.25 7.25 0
47.25 7.25 0
48.25 7.25 0
49.25 7.25 0
0.75 7.75 0
1.75 7.75 0
2.75 7.75 0
3.75 7.75 0
4.75 7.75 0
5.75 7.75 0
6.75 7.75 0
7.75 7.75 0
8.75 7.75 0
9.75 7.75 0
10.75 7.75 0
11.75 7.75 0
12.75 7.75 0
13.75 7.75 0
14.75 7.75 0
15.75 7.75 0
16.75 7.75 0
17.75 7.75 0
18.75 7.75 0
19.75 7.75 0
20.75 7.75 0
21.75 7.75 0
[...]
POINT_DATA 5000
VECTORS velocity float
-0.28991 -0.28991 0.912088
-0.145612 -0.330361 0.932555
0.0247088 -0.43106 0.901985
0.182133 -0.559481 0.808584
0.301373 -0.689928 0.65816
0.370442 -0.80257 0.467604
0.388168 -0.885432 0.255608
0.357855 -0.932959 0.0390899
0.284428 -0.944257 -0.165766
0.174936 -0.922633 -0.343724
0.0390322 -0.874909 -0.482712
-0.111963 -0.809714 -0.576044
-0.266819 -0.73534 -0.622963
-0.415867 -0.658261 -0.627492
-0.551745 -0.58274 -0.59665
-0.669566 -0.511186 -0.53886
-0.766824 -0.444749 -0.462795
-0.843139 -0.383816 -0.376567
-0.899851 -0.328331 -0.287171
-0.939506 -0.277966 -0.20016
-0.965292 -0.232205 -0.119547
-0.980535 -0.190408 -0.0479087
-0.988312 -0.151858 0.0133805
-0.991217 -0.115813 0.0638446
-0.991269 -0.0815628 0.103604
-0.989915 -0.0484735 0.133113
-0.988101 -0.0160204 0.152968
-0.986363 0.0161841 0.163784
-0.984915 0.0483707 0.166139
-0.983726 0.0805978 0.160581
-0.982588 0.11275 0.147677
-0.98117 0.144555 0.128099
-0.979084 0.175631 0.102701
-0.975954 0.205541 0.0725734
-0.971486 0.233862 0.0390277
-0.965541 0.260229 0.00352936
-0.958167 0.284367 -0.0324246
-0.949602 0.306117 -0.0674443
-0.940209 0.325472 -0.100371
-0.930377 0.342643 -0.130361
-0.920385 0.358143 -0.156924
-0.910261 0.372892 -0.179933
-0.899656 0.388302 -0.199601
-0.887716 0.40633 -0.216463
-0.872989 0.429379 -0.231352
-0.853419 0.459885 -0.245319
-0.826669 0.499423 -0.259219
-0.791064 0.547585 -0.272705
-0.747025 0.601554 -0.282994
-0.699274 0.655913 -0.284242
-0.225838 -0.225838 0.947626
-0.039358 -0.293318 0.955204
0.150901 -0.410645 0.899222
0.309245 -0.547303 0.777706
0.414882 -0.677669 0.607155
0.463552 -0.785657 0.40971
0.460002 -0.864393 0.203033
0.410158 -0.912014 0.00116836
0.320142 -0.929572 -0.182772
0.197648 -0.920566 -0.336888
0.0523286 -0.890255 -0.452447
-0.105205 -0.844362 -0.525342
-0.264766 -0.787829 -0.556079
-0.417536 -0.72427 -0.548722
-0.556473 -0.656197 -0.50965
-0.676528 -0.585576 -0.446553
-0.774847 -0.514272 -0.367609
-0.850851 -0.444145 -0.280691
-0.906005 -0.376876 -0.192665
-0.943247 -0.313727 -0.108903
-0.966271 -0.255385 -0.033136
-0.978857 -0.201963 0.0324165
-0.984395 -0.153108 0.0867455
-0.985637 -0.108158 0.129696
-0.98462 -0.066309 0.161638
-0.982712 -0.0267494 0.183197
-0.980723 0.0112368 0.195081
-0.979021 0.0481991 0.197977
-0.977647 0.0844742 0.192536
-0.976408 0.120166 0.179409
-0.974957 0.155157 0.15933
-0.972871 0.189159 0.133194
-0.969734 0.221782 0.102121
-0.965214 0.252614 0.0674456
-0.959136 0.281278 0.0306591
-0.951534 0.307471 -0.0067145
-0.942647 0.330976 -0.0432573
-0.932876 0.351698 -0.0777859
-0.922678 0.369714 -0.109442
-0.912434 0.385346 -0.137741
-0.902309 0.399257 -0.162578
-0.892113 0.412551 -0.18422
-0.881172 0.426866 -0.203278
-0.868216 0.44441 -0.220684
-0.851278 0.467825 -0.237626
-0.827749 0.499684 -0.255241
-0.794954 0.541464 -0.273614
-0.751645 0.592307 -0.290176
-0.700677 0.648231 -0.298073
-0.655913 0.699274 -0.284242
-0.330361 -0.145612 0.932555
-0.15509 -0.15509 0.975651
0.0580607 -0.244882 0.967813
0.258678 -0.377841 0.889001
0.411382 -0.523241 0.746314
0.500838 -0.656479 0.56409
0.530223 -0.764991 0.365586
0.508098 -0.845009 0.166722
0.442225 -0.896678 -0.0201401
0.340078 -0.922214 -0.184031
0.209961 -0.9252 -0.316104
0.0608732 -0.909636 -0.410923
-0.0982956 -0.878888 -0.466792
-0.259281 -0.835136 -0.4851
-0.414439 -0.779645 -0.469461
-0.556706 -0.713639 -0.425202
-0.680075 -0.639175 -0.359102
-0.780544 -0.559424 -0.278918
-0.85691 -0.478179 -0.192483
-0.910743 -0.398961 -0.106667
-0.945569 -0.324324 -0.0266953
-0.965775 -0.25562 0.0440083
-0.975685 -0.193157 0.103583
-0.979011 -0.136504 0.151343
-0.978619 -0.0848083 0.187382
-0.976516 -0.0370531 0.212235
-0.973948 0.00775517 0.226638
-0.971557 0.0504555 0.231366
-0.96953 0.0916491 0.227181
-0.967734 0.131655 0.214842
-0.965832 0.170515 0.195174
-0.963384 0.208035 0.169153
-0.959943 0.243878 0.137962
-0.955147 0.277645 0.102995
-0.948799 0.308953 0.0657871
-0.94092 0.337476 0.0279001
-0.931758 0.362962 -0.00922575
-0.921739 0.385261 -0.0443996
-0.911368 0.404369 -0.0767701
-0.901093 0.420504 -0.105869
-0.891159 0.434178 -0.131622
-0.881477 0.446298 -0.154327
-0.871493 0.458262 -0.174633
-0.860077 0.472047 -0.193494
-0.845408 0.490189 -0.212132
-0.82491 0.51553 -0.231847
-0.795504 0.550487 -0.253253
-0.754772 0.595692 -0.274719
-0.703299 0.648484 -0.29127
-0.648231 0.700677 -0.298073
-0.293318 -0.039358 0.955204
-0.0807909 -0.0807909 0.993451
0.152151 -0.189975 0.969928
0.357319 -0.337338 0.870934
0.499982 -0.491651 0.71295
0.572589 -0.629665 0.525037
0.584266 -0.741676 0.329469
0.546037 -0.825859 0.140712
0.467248 -0.883611 -0.0301854
0.356511 -0.917865 -0.174423
0.222142 -0.932076 -0.286158
0.0717389 -0.92909 -0.362829
-0.0880438 -0.910294 -0.404492
-0.250937 -0.875557 -0.412832
-0.410052 -0.824153 -0.390678
-0.55749 -0.756342 -0.342274
-0.685414 -0.674743 -0.273734
-0.788242 -0.5844 -0.192746
-0.864312 -0.491375 -0.107312
-0.915792 -0.400918 -0.0242892
-0.947228 -0.316415 0.0513888
-0.963891 -0.239358 0.116715
-0.97066 -0.169844 0.170214
-0.971492 -0.107138 0.211483
-0.969281 -0.0501106 0.240798
-0.965925 0.00245692 0.258811
-0.962496 0.0516725 0.266329
-0.959434 0.0984029 0.264204
-0.956727 0.1432 0.25331
-0.954079 0.186287 0.234585
-0.951038 0.227599 0.209105
-0.947123 0.266874 0.178145
-0.941931 0.303754 0.14318
-0.935227 0.337867 0.105816
-0.927012 0.368876 0.0676725
-0.917536 0.396503 0.0302312
-0.907253 0.420551 -0.00529675
-0.896721 0.440957 -0.0380609
-0.886453 0.457854 -0.067612
-0.876773 0.471648 -0.0939045
-0.867676 0.483099 -0.117275
-0.858709 0.49342 -0.138406
-0.848857 0.504373 -0.158274
-0.836438 0.518313 -0.178108
-0.819006 0.538067 -0.199281
-0.793398 0.566447 -0.22284
-0.756452 0.605113 -0.248231
-0.70695 0.652755 -0.272274
-0.648484 0.703299 -0.29127
-0.601554 0.747025 -0.282994
-0.43106 0.0247088 0.901985
-0.244882 0.0580607 0.967813
-0.00432208 -0.00432208 0.999981
0.243937 -0.12986 0.961057
0.448185 -0.290808 0.845317
0.578101 -0.454299 0.677799
0.634394 -0.598705 0.488974
0.630213 -0.71633 0.299505
0.57835 -0.806498 0.122768
0.489531 -0.871415 -0.0315577
0.372999 -0.914452 -0.157003
0.236342 -0.93883 -0.250482
0.085214 -0.946376 -0.311628
-0.0760555 -0.936801 -0.341496
-0.242801 -0.907958 -0.341555
-0.408094 -0.857344 -0.31372
-0.562211 -0.784593 -0.261406
-0.694834 -0.693472 -0.190531
-0.798905 -0.591483 -0.109077
-0.873 -0.487068 -0.025239
-0.920568 -0.386782 0.0543532
-0.947485 -0.294249 0.125259
-0.959907 -0.210641 0.184954
-0.963141 -0.135618 0.232307
-0.961254 -0.0680833 0.267124
-0.957063 -0.00667311 0.289804
-0.952288 0.0499499 0.301084
-0.947783 0.102908 0.301857
-0.94376 0.152999 0.2931
-0.940016 0.200655 0.275874
-0.936111 0.245975 0.251381
-0.931527 0.288813 0.221007
-0.925806 0.328886 0.186328
-0.918658 0.365863 0.149039
-0.910043 0.399422 0.110837
-0.9002 0.429271 0.073264
-0.889607 0.455178 0.0375686
-0.878877 0.477026 0.00461406
-0.868599 0.494877 -0.0251604
-0.859183 0.509045 -0.0517375
-0.850717 0.520174 -0.0754939
-0.84284 0.529321 -0.0971532
-0.834643 0.538063 -0.117725
-0.824566 0.548566 -0.138443
-0.810305 0.563543 -0.1607
-0.788782 0.58592 -0.185798
-0.756475 0.617992 -0.214085
-0.710847 0.659728 -0.243836
-0.652755 0.70695 -0.272274
-0.592307 0.751645 -0.290176
-0.410645 0.150901 0.899222
-0.189975 0.152151 0.969928
0.0743646 0.0743646 0.994455
0.332641 -0.0661178 0.940733
0.531145 -0.239971 0.812588
0.647284 -0.412889 0.640738
0.688502 -0.564884 0.454831
0.670462 -0.689472 0.274059
0.607387 -0.786635 0.11084
0.511048 -0.859136 -0.0267537
0.390668 -0.910639 -0.134593
0.2525 -0.944115 -0.211873
0.10005 -0.960499 -0.259675
-0.0644263 -0.958008 -0.27941
-0.237216 -0.93259 -0.272039
-0.410417 -0.880104 -0.238693
-0.571618 -0.799984 -0.182422
-0.707813 -0.697871 -0.109438
-0.811142 -0.584171 -0.0281585
-0.88134 -0.469469 0.053276
-0.923642 -0.360977 0.128769
-0.945266 -0.261998 0.194498
-0.953066 -0.173125 0.24838
-0.952588 -0.0935493 0.289525
-0.947882 -0.0218915 0.317868
-0.941611 0.0433398 0.333901
-0.935273 0.103487 0.33846
-0.929473 0.159587 0.332584
-0.924201 0.212302 0.31746
-0.919078 0.261929 0.29443
-0.913567 0.308481 0.265019
-0.907146 0.351796 0.230924
-0.89945 0.39163 0.193947
-0.890375 0.42771 0.155876
-0.880124 0.459761 0.118327
-0.869185 0.487539 0.082603
-0.858218 0.510884 0.0495953
-0.847894 0.529798 0.0197474
-0.838721 0.544517 -0.00694197
-0.83089 0.555578 -0.0308855
-0.824149 0.563902 -0.0528529
-0.81769 0.570896 -0.0738957
-0.810064 0.57855 -0.095267
-0.799105 0.589426 -0.118354
-0.781873 0.606447 -0.14456
-0.754772 0.632262 -0.174826
-0.714424 0.667891 -0.208612
-0.659728 0.710847 -0.243836
-0.595692 0.754772 -0.274719
-0.547585 0.791064 -0.272705
-0.559481 0.182133 0.808584
-0.377841 0.258678 0.889001
-0.12986 0.243937 0.961057
0.153633 0.153633 0.976111
0.41596 -0.000934101 0.909382
0.605508 -0.186764 0.773614
0.708231 -0.369116 0.601799
0.736079 -0.529357 0.421864
0.706312 -0.661587 0.251844
0.634333 -0.766154 0.103104
0.532481 -0.846249 -0.0180637
0.40936 -0.90576 -0.109655
0.269557 -0.947402 -0.172535
0.11452 -0.971281 -0.208561
-0.0550838 -0.974155 -0.219062
-0.23573 -0.95007 -0.204446
-0.417629 -0.893435 -0.165407
-0.585098 -0.804113 -0.105184
-0.722799 -0.69038 -0.0306163
-0.823125 -0.565689 0.0496134
-0.887781 -0.442161 0.127824
-0.923919 -0.326948 0.198691
-0.939863 -0.222664 0.258993
-0.942903 -0.12928 0.306955
-0.938658 -0.0456318 0.341817
-0.93108 0.0297949 0.363597
-0.92263 0.0984801 0.372901
-0.914562 0.16166 0.370732
-0.907233 0.220219 0.358374
-0.900426 0.274674 0.337323
-0.89363 0.325237 0.309268
-0.886267 0.371917 0.276058
-0.877885 0.414606 0.239625
-0.868285 0.453137 0.201864
-0.857607 0.487295 0.164479
-0.846322 0.516856 0.128837
-0.835119 0.54165 0.0958745
-0.824744 0.561636 0.0660523
-0.815805 0.576986 0.039365
-0.80861 0.588144 0.0153733
-0.803027 0.595905 -0.00673603
-0.798363 0.601522 -0.0280639
-0.793279 0.60681 -0.0498963
-0.785727 0.614177 -0.073618
-0.77291 0.626483 -0.100643
-0.751318 0.646563 -0.1322
-0.717158 0.676203 -0.168627
-0.667891 0.714424 -0.208612
-0.605113 0.756452 -0.248231
-0.541464 0.794954 -0.273614
-0.547303 0.309245 0.777706
-0.337338 0.357319 0.870934
-0.0661178 0.332641 0.940733
0.230773 0.230773 0.945245
0.49175 0.0633824 0.868427
0.670945 -0.133091 0.729465
0.761478 -0.324485 0.561125
0.777899 -0.493071 0.389557
0.738553 -0.633093 0.231803
0.659706 -0.745107 0.0979979
0.553751 -0.83265 -0.00735698
0.428255 -0.899747 -0.0839833
0.286081 -0.948817 -0.133805
0.126938 -0.979093 -0.158942
-0.0495118 -0.985803 -0.160441
-0.239126 -0.961085 -0.138328
-0.429431 -0.898261 -0.0933593
-0.601319 -0.798466 -0.0294632
-0.737998 -0.673243 0.0458522
-0.833261 -0.538779 0.12407
-0.891224 -0.407882 0.198372
-0.920737 -0.287058 0.264273
-0.930868 -0.178102 0.319005
-0.929107 -0.0804999 0.360943
-0.92105 0.00706455 0.389381
-0.910507 0.0860626 0.404438
-0.899732 0.15783 0.406906
-0.88973 0.223423 0.398075
-0.880629 0.283567 0.379581
-0.872045 0.338696 0.353303
-0.863384 0.389034 0.321279
-0.854102 0.434672 0.285604
-0.843887 0.475603 0.248308
-0.83278 0.511736 0.211198
-0.821194 0.54292 0.175721
-0.809822 0.569015 0.142866
-0.799459 0.589973 0.113126
-0.790804 0.605925 0.0865056
-0.784284 0.617241 0.0625516
-0.779896 0.624603 0.0404152
-0.777078 0.62912 0.0189451
-0.774604 0.632438 -0.00319036
-0.770533 0.636811 -0.0273883
-0.762197 0.645001 -0.0550393
-0.74622 0.659931 -0.0874495
-0.718709 0.683896 -0.125474
-0.676203 0.717158 -0.168627
-0.617992 0.756475 -0.214085
-0.550487 0.795504 -0.253253
-0.499423 0.826669 -0.259219
-0.689928 0.301373 0.65816
-0.523241 0.411382 0.746314
-0.290808 0.448185 0.845317
-0.000934101 0.41596 0.909382
0.303163 0.303163 0.903429
0.558869 0.124867 0.819801
0.727635 -0.0805827 0.681215
0.807561 -0.280219 0.518963
0.814528 -0.456792 0.35761
0.767605 -0.604434 0.21317
0.683522 -0.7238 0.0943985
0.574273 -0.818653 0.00416932
0.446191 -0.893025 -0.0584875
0.300575 -0.94891 -0.0960407
0.135824 -0.984544 -0.110564
-0.0487584 -0.993504 -0.102823
-0.247613 -0.966119 -0.0728151
-0.444995 -0.895265 -0.0219103
-0.618729 -0.784317 0.0449696
-0.751831 -0.648354 0.11995
-0.840427 -0.505533 0.195241
-0.891034 -0.368459 0.265133
-0.913746 -0.24265 0.325867
-0.918015 -0.12919 0.37491
-0.91138 -0.0273439 0.410656
-0.899378 0.0641161 0.432445
-0.88569 0.146445 0.440576
-0.872372 0.220742 0.436165
-0.860207 0.28788 0.420915
-0.849128 0.348503 0.396896
-0.838628 0.403078 0.366376
-0.828097 0.451945 0.331663
-0.817096 0.49533 0.29496
-0.805533 0.533335 0.258207
-0.793722 0.565952 0.222946
-0.782312 0.593128 0.19023
-0.772112 0.61486 0.160596
-0.763883 0.631275 0.134067
-0.758155 0.642696 0.110192
-0.755057 0.649714 0.0880975
-0.754164 0.653301 0.0665858
-0.754375 0.65495 0.0442721
-0.753847 0.656754 0.0197284
-0.750017 0.661365 -0.00841594
-0.739646 0.671719 -0.0414367
-0.718912 0.690437 -0.0803895
-0.683896 0.718709 -0.125474
-0.632262 0.754772 -0.174826
-0.566447 0.793398 -0.22284
-0.499684 0.827749 -0.255241
-0.677669 0.414882 0.607155
-0.491651 0.499982 0.71295
-0.239971 0.531145 0.812588
0.0633824 0.49175 0.868427
0.369092 0.369092 0.852961
0.617204 0.182203 0.765416
0.776135 -0.0304011 0.629833
0.847055 -0.237187 0.475647
0.846419 -0.421116 0.325938
0.793661 -0.576082 0.195532
0.705527 -0.702719 0.0917416
0.593291 -0.804827 0.0160945
0.462039 -0.886239 -0.0331783
0.311784 -0.948336 -0.0587283
0.140104 -0.988165 -0.0624608
-0.0533732 -0.997558 -0.0450456
-0.260894 -0.965343 -0.00691834
-0.463168 -0.88489 0.0494568
-0.635841 -0.762717 0.118192
-0.76312 -0.617189 0.191636
-0.843976 -0.467349 0.26323
-0.886917 -0.324867 0.328389
-0.902752 -0.194218 0.383821
-0.901041 -0.0760753 0.427009
-0.889315 0.0301863 0.456298
-0.873086 0.125455 0.471149
-0.855957 0.210644 0.472194
-0.839827 0.286611 0.461026
-0.825293 0.354139 0.43986
-0.812135 0.413928 0.411218
-0.799772 0.466606 0.377682
-0.787651 0.512696 0.341685
-0.775516 0.552575 0.305346
-0.763535 0.586462 0.270329
-0.752258 0.614472 0.237766
-0.742453 0.63671 0.208241
-0.734897 0.653355 0.181808
-0.730189 0.66472 0.158025
-0.728572 0.671331 0.136008
-0.729758 0.674046 0.11452
-0.732772 0.67421 0.0921224
-0.73587 0.673766 0.0673397
-0.736572 0.675246 0.038801
-0.731748 0.681555 0.00529113
-0.717713 0.695497 -0.034242
-0.690437 0.718912 -0.0803895
-0.646563 0.751318 -0.1322
-0.58592 0.788782 -0.185798
-0.51553 0.82491 -0.231847
-0.459885 0.853419 -0.245319
-0.80257 0.370442 0.467604
-0.656479 0.500838 0.56409
-0.454299 0.578101 0.677799
-0.186764 0.605508 0.773614
0.124867 0.558869 0.819801
0.427904 0.427904 0.796114
0.667287 0.234744 0.706841
0.817188 0.0167913 0.576127
0.880567 -0.195914 0.431531
0.873988 -0.386464 0.294601
0.81684 -0.548466 0.178768
0.725459 -0.682362 0.0899457
0.610195 -0.791734 0.0286211
0.474993 -0.879958 -0.00741924
0.31891 -0.947557 -0.0208083
0.139228 -0.990171 -0.0133315
-0.0633628 -0.997891 0.0141074
-0.278213 -0.958636 0.0601285
-0.482621 -0.867442 0.120918
-0.651383 -0.734565 0.190038
-0.771111 -0.580842 0.260789
-0.843617 -0.425022 0.328125
-0.878759 -0.277403 0.388368
-0.887566 -0.141644 0.438365
-0.879555 -0.0184404 0.47544
-0.862292 0.0923551 0.497919
-0.841374 0.191088 0.505544
-0.820412 0.278301 0.499472
-0.801207 0.354726 0.481909
-0.784207 0.421223 0.455621
-0.76907 0.47871 0.423519
-0.755207 0.52806 0.388349
-0.742194 0.570009 0.352474
-0.730003 0.605103 0.317721
-0.719017 0.633723 0.285323
-0.709893 0.65617 0.255917
-0.703356 0.67274 0.229588
-0.700019 0.683794 0.205911
-0.700201 0.689829 0.183996
-0.703732 0.691613 0.162582
-0.709758 0.690358 0.140175
-0.716629 0.687867 0.115243
-0.721928 0.686554 0.0863919
-0.722604 0.689269 0.0524551
-0.715108 0.698903 0.012476
-0.695497 0.717713 -0.034242
-0.659931 0.74622 -0.0874495
-0.606447 0.781873 -0.14456
-0.538067 0.819006 -0.199281
-0.467825 0.851278 -0.237626
-0.785657 0.463552 0.40971
-0.629665 0.572589 0.525037
-0.412889 0.647284 0.640738
-0.133091 0.670945 0.729465
0.182203 0.617204 0.765416
0.479688 0.479688 0.73471
0.709904 0.282338 0.64523
0.851564 0.0607232 0.520721
0.908707 -0.156656 0.386926
0.897654 -0.353096 0.263706
0.837304 -0.521893 0.16294
0.743201 -0.66309 0.0892391
0.624661 -0.779748 0.0423198
0.484647 -0.874487 0.0197544
0.321618 -0.946679 0.0189723
0.133137 -0.990365 0.0381065
-0.0782515 -0.994064 0.0755816
-0.298457 -0.945713 0.128644
-0.501995 -0.843236 0.192236
-0.664372 -0.700673 0.260128
-0.775401 -0.540073 0.327222
-0.839278 -0.378861 0.38997
-0.866473 -0.225876 0.445202
-0.867867 -0.0844285 0.489569
-0.852924 0.0442388 0.520158
-0.829405 0.159441 0.535412
-0.803174 0.260885 0.535584
-0.777964 0.348867 0.522555
-0.755528 0.424201 0.499231
-0.736183 0.488031 0.468892
-0.719511 0.541611 0.434696
-0.704978 0.586118 0.39934
-0.692326 0.622531 0.364883
-0.681699 0.651618 0.332687
-0.673547 0.673983 0.303448
-0.668453 0.690137 0.277275
-0.666959 0.700554 0.253752
-0.6694 0.70575 0.231993
-0.675685 0.706434 0.210713
-0.685062 0.703708 0.188373
-0.69596 0.699248 0.163379
-0.706005 0.695358 0.134293
-0.712194 0.694827 0.0999726
-0.711086 0.700577 0.0595726
-0.698903 0.715108 0.012476
-0.671719 0.739646 -0.0414367
-0.626483 0.77291 -0.100643
-0.563543 0.810305 -0.1607
-0.490189 0.845408 -0.212132
-0.429379 0.872989 -0.231352
-0.885432 0.388168 0.255608
-0.764991 0.530223 0.365586
-0.598705 0.634394 0.488974
-0.369116 0.708231 0.601799
-0.0805827 0.727635 0.681215
0.234744 0.667287 0.706841
0.524898 0.524898 0.670047
0.745847 0.32512 0.581386
0.879978 0.101374 0.46407
0.932052 -0.119481 0.342058
0.917838 -0.321117 0.233362
0.855285 -0.496508 0.14821
0.75881 -0.64506 0.0900233
0.636635 -0.768985 0.0579422
0.490917 -0.869803 0.0494175
0.31991 -0.945428 0.0618354
0.122123 -0.988157 0.0929018
-0.0972123 -0.985384 0.139886
-0.320323 -0.926288 0.198454
-0.52006 -0.812681 0.262843
-0.674154 -0.661777 0.327975
-0.775856 -0.495349 0.390738
-0.830966 -0.328793 0.448765
-0.849871 -0.169757 0.498902
-0.843091 -0.0218586 0.537326
-0.820193 0.112523 0.560911
-0.789433 0.231605 0.568468
-0.757179 0.334526 0.561045
-0.727399 0.421591 0.541434
-0.701816 0.493974 0.513268
-0.680635 0.553288 0.480217
-0.663407 0.601223 0.445447
-0.64967 0.639318 0.411341
-0.639257 0.668865 0.379435
-0.632298 0.69091 0.350488
-0.629109 0.706293 0.324612
-0.630044 0.715692 0.301381
-0.635356 0.719707 0.2799
-0.64497 0.719028 0.258867
-0.658197 0.714667 0.236703
-0.673519 0.70819 0.211752
-0.688585 0.70181 0.182522
-0.700402 0.698264 0.147867
-0.705599 0.700481 0.107037
-0.700577 0.711086 0.0595726
-0.681555 0.731748 0.00529113
-0.645001 0.762197 -0.0550393
-0.589426 0.799105 -0.118354
-0.518313 0.836438 -0.178108
-0.44441 0.868216 -0.220684
-0.864393 0.460002 0.203033
-0.741676 0.584266 0.329469
-0.564884 0.688502 0.454831
-0.324485 0.761478 0.561125
-0.0304011 0.776135 0.629833
0.282338 0.709904 0.64523
0.56409 0.56409 0.602996
0.775803 0.363352 0.515854
0.903042 0.138859 0.406488
0.95112 -0.0843346 0.297084
0.934946 -0.2905 0.203681
0.871073 -0.472288 0.134818
0.772478 -0.628222 0.092819
0.64624 -0.759306 0.0763401
0.493902 -0.865579 0.0826642
0.313978 -0.943167 0.108873
0.106711 -0.982637 0.151777
-0.119197 -0.971039 0.207064
-0.342483 -0.900196 0.268982
-0.535837 -0.7763 0.332018
-0.68039 -0.61849 0.393115
-0.772515 -0.44684 0.45117
-0.818668 -0.274409 0.504463
-0.828566 -0.10823 0.549331
-0.812353 0.0469443 0.581274
-0.780058 0.187007 0.597108
-0.740859 0.308943 0.596391
-0.701907 0.411563 0.581328
-0.66748 0.49556 0.555779
-0.639272 0.562779 0.524032
-0.61739 0.615493 0.489896
-0.601332 0.655947 0.456216
-0.590595 0.686129 0.424765
-0.584865 0.707695 0.39636
-0.58402 0.721959 0.371074
-0.588061 0.72992 0.348427
-0.597017 0.732342 0.327484
-0.610722 0.729945 0.306919
-0.628487 0.723681 0.285115
-0.648811 0.715022 0.260361
-0.669329 0.706107 0.231108
-0.687023 0.699648 0.196192
-0.698555 0.698582 0.154931
-0.700481 0.705599 0.107037
-0.689269 0.722604 0.0524551
-0.661365 0.750017 -0.00841594
-0.614177 0.785727 -0.073618
-0.548566 0.824566 -0.138443