# vtk DataFile Version 2.0
tmp/0.000.00-10.000.000.001.0047.vtk
ASCII
DATASET UNSTRUCTURED_GRID
POINTS 5000 float
0.75 0.25 0
1.75 0.25 0
2.75 0.25 0
3.75 0.25 0
4.75 0.25 0
5.75 0.25 0
6.75 0.25 0
7.75 0.25 0
8.75 0.25 0
9.75 0.25 0
10.75 0.25 0
11.75 0.25 0
12.75 0.25 0
13.75 0.25 0
14.75 0.25 0
15.75 0.25 0
16.75 0.25 0
17.75 0.25 0
18.75 0.25 0
19.75 0.25 0
20.75 0.25 0
21.75 0.25 0
22.75 0.25 0
23.75 0.25 0
24.75 0.25 0
25.75 0.25 0
26.75 0.25 0
27.75 0.25 0
28.75 0.25 0
29.75 0.25 0
30.75 0.25 0
31.75 0.25 0
32.75 0.25 0
33.75 0.25 0
34.75 0.25 0
35.75 0.25 0
36.75 0.25 0
37.75 0.25 0
38.75 0.25 0
39.75 0.25 0
40.75 0.25 0
41.75 0.25 0
42.75 0.25 0
43.75 0.25 0
44.75 0.25 0
45.75 0.25 0
46.75 0.25 0
47.75 0.25 0
48.75 0.25 0
49.75 0.25 0
0.25 0.75 0
1.25 0.75 0
2.25 0.75 0
3.25 0.75 0
4.25 0.75 0
5.25 0.75 0
6.25 0.75 0
7.25 0.75 0
8.25 0.75 0
9.25 0.75 0
10.25 0.75 0
11.25 0.75 0
12.25 0.75 0
13.25 0.75 0
14.25 0.75 0
15.25 0.75 0
16.25 0.75 0
17.25 0.75 0
18.25 0.75 0
19.25 0.75 0
20.25 0.75 0
21.25 0.75 0
22.25 0.75 0
23.25 0.75 0
24.25 0.75 0
25.25 0.75 0
26.25 0.75 0
27.25 0.75 0
28.25 0.75 0
29.25 0.75 0
30.25 0.75 0
31.25 0.75 0
32.25 0.75 0
33.25 0.75 0
34.25 0.75 0
35.25 0.75 0
36.25 0.75 0
37.25 0.75 0
38.25 0.75 0
39.25 0.75 0
40.25 0.75 0
41.25 0.75 0
42.25 0.75 0
43.25 0.75 0
44.25 0.75 0
45.25 0.75 0
46.25 0.75 0
47.25 0.75 0
48.25 0.75 0
49.25 0.75 0
0.75 1.25 0
1.75 1.25 0
2.75 1.25 0
3.75 1.25 0
4.75 1.25 0
5.75 1.25 0
6.75 1.25 0
7.75 1.25 0
8.75 1.25 0
9.75 1.25 0
10.75 1.25 0
11.75 1.25 0
12.75 1.25 0
13.75 1.25 0
14.75 1.25 0
15.75 1.25 0
16.75 1.25 0
17.75 1.25 0
18.75 1.25 0
19.75 1.25 0
20.75 1.25 0
21.75 1.25 0
22.75 1.25 0
23.75 1.25 0
24.75 1.25 0
25.75 1.25 0
26.75 1.25 0
27.75 1.25 0
28.75 1.25 0
29.75 1.25 0
30.75 1.25 0
31.75 1.25 0
32.75 1.25 0
33.75 1.25 0
34.75 1.25 0
35.75 1.25 0
36.75 1.25 0
37.75 1.25 0
38.75 1.25 0
39.75 1.25 0
40.75 1.25 0
41.75 1.25 0
42.75 1.25 0
43.75 1.25 0
44.75 1.25 0
45.75 1.25 0
46.75 1.25 0
47.75 1.25 0
48.75 1.25 0
49.75 1.25 0
0.25 1.75 0
1.25 1.75 0
2.25 1.75 0
3.25 1.75 0
4.25 1.75 0
5.25 1.75 0
6.25 1.75 0
7.25 1.75 0
8.25 1.75 0
9.25 1.75 0
10.25 1.75 0
11.25 1.75 0
12.25 1.75 0
13.25 1.75 0
14.25 1.75 0
15.25 1.75 0
16.25 1.75 0
17.25 1.75 0
18.25 1.75 0
19.25 1.75 0
20.25 1.75 0
21.25 1.75 0
22.25 1.75 0
23.25 1.75 0
24.25 1.75 0
25.25 1.75 0
26.25 1.75 0
27.25 1.75 0
28.25 1.75 0
29.25 1.75 0
30.25 1.75 0
31.25 1.75 0
32.25 1.75 0
33.25 1.75 0
34.25 1.75 0
35.25 1.75 0
36.25 1.75 0
37.25 1.75 0
38.25 1.75 0
39.25 1.75 0
40.25 1.75 0
41.25 1.75 0
42.25 1.75 0
43.25 1.75 0
44.25 1.75 0
45.25 1.75 0
46.25 1.75 0
47.25 1.75 0
48.25 1.75 0
49.25 1.75 0
0.75 2.25 0
1.75 2.25 0
2.75 2.25 0
3.75 2.25 0
4.75 2.25 0
5.75 2.25 0
6.75 2.25 0
7.75 2.25 0
8.75 2.25 0
9.75 2.25 0
10.75 2.25 0
11.75 2.25 0
12.75 2.25 0
13.75 2.25 0
14.75 2.25 0
15.75 2.25 0
16.75 2.25 0
17.75 2.25 0
18.75 2.25 0
19.75 2.25 0
20.75 2.25 0
21.75 2.25 0
22.75 2.25 0
23.75 2.25 0
24.75 2.25 0
25.75 2.25 0
26.75 2.25 0
27.75 2.25 0
28.75 2.25 0
29.75 2.25 0
30.75 2.25 0
31.75 2.25 0
32.75 2.25 0
33.75 2.25 0
34.75 2.25 0
35.75 2.25 0
36.75 2.25 0
37.75 2.25 0
38.75 2.25 0
39.75 2.25 0
40.75 2.25 0
41.75 2.25 0
42.75 2.25 0
43.75 2.25 0
44.75 2.25 0
45.75 2.25 0
46.75 2.25 0
47.75 2.25 0
48.75 2.25 0
49.75 2.25 0
0.25 2.75 0
1.25 2.75 0
2.25 2.75 0
3.25 2.75 0
4.25 2.75 0
5.25 2.75 0
6.25 2.75 0
7.25 2.75 0
8.25 2.75 0
9.25 2.75 0
10.25 2.75 0
11.25 2.75 0
12.25 2.75 0
13.25 2.75 0
14.25 2.75 0
15.25 2.75 0
16.25 2.75 0
17.25 2.75 0
18.25 2.75 0
19.25 2.75 0
20.25 2.75 0
21.25 2.75 0
22.25 2.75 0
23.25 2.75 0
24.25 2.75 0
25.25 2.75 0
26.25 2.75 0
27.25 2.75 0
28.25 2.75 0
29.25 2.75 0
30.25 2.75 0
31.25 2.75 0
32.25 2.75 0
33.25 2.75 0
34.25 2.75 0
35.25 2.75 0
36.25 2.75 0
37.25 2.75 0
38.25 2.75 0
39.25 2.75 0
40.25 2.75 0
41.25 2.75 0
42.25 2.75 0
43.25 2.75 0
44.25 2.75 0
45.25 2.75 0
46.25 2.75 0
47.25 2.75 0
48.25 2.75 0
49.25 2.75 0
0.75 3.25 0
1.75 3.25 0
2.75 3.25 0
3.75 3.25 0
4.75 3.25 0
5.75 3.25 0
6.75 3.25 0
7.75 3.25 0
8.75 3.25 0
9.75 3.25 0
10.75 3.25 0
11.75 3.25 0
12.75 3.25 0
13.75 3.25 0
14.75 3.25 0
15.75 3.25 0
16.75 3.25 0
17.75 3.25 0
18.75 3.25 0
19.75 3.25 0
20.75 3.25 0
21.75 3.25 0
22.75 3.25 0
23.75 3.25 0
24.75 3.25 0
25.75 3.25 0
26.75 3.25 0
27.75 3.25 0
28.75 3.25 0
29.75 3.25 0
30.75 3.25 0
31.75 3.25 0
32.75 3.25 0
33.75 3.25 0
34.75 3.25 0
35.75 3.25 0
36.75 3.25 0
37.75 3.25 0
38.75 3.25 0
39.75 3.25 0
40.75 3.25 0
41.75 3.25 0
42.75 3.25 0
43.75 3.25 0
44.75 3.25 0
45.75 3.25 0
46.75 3.25 0
47.75 3.25 0
48.75 3.25 0
49.75 3.25 0
0.25 3.75 0
1.25 3.75 0
2.25 3.75 0
3.25 3.75 0
4.25 3.75 0
5.25 3.75 0
6.25 3.75 0
7.25 3.75 0
8.25 3.75 0
9.25 3.75 0
10.25 3.75 0
11.25 3.75 0
12.25 3.75 0
13.25 3.75 0
14.25 3.75 0
15.25 3.75 0
16.25 3.75 0
17.25 3.75 0
18.25 3.75 0
19.25 3.75 0
20.25 3.75 0
21.25 3.75 0
22.25 3.75 0
23.25 3.75 0
24.25 3.75 0
25.25 3.75 0
26.25 3.75 0
27.25 3.75 0
28.25 3.75 0
29.25 3.75 0
30.25 3.75 0
31.25 3.75 0
32.25 3.75 0
33.25 3.75 0
34.25 3.75 0
35.25 3.75 0
36.25 3.75 0
37.25 3.75 0
38.25 3.75 0
39.25 3.75 0
40.25 3.75 0
41.25 3.75 0
42.25 3.75 0
43.25 3.75 0
44.25 3.75 0
45.25 3.75 0
46.25 3.75 0
47.25 3.75 0
48.25 3.75 0
49.25 3.75 0
0.75 4.25 0
1.75 4.25 0
2.75 4.25 0
3.75 4.25 0
4.75 4.25 0
5.75 4.25 0
6.75 4.25 0
7.75 4.25 0
8.75 4.25 0
9.75 4.25 0
10.75 4.25 0
11.75 4.25 0
12.75 4.25 0
13.75 4.25 0
14.75 4.25 0
15.75 4.25 0
16.75 4.25 0
17.75 4.25 0
18.75 4.25 0
19.75 4.25 0
20.75 4.25 0
21.75 4.25 0
22.75 4.25 0
23.75 4.25 0
24.75 4.25 0
25.75 4.25 0
26.75 4.25 0
27.75 4.25 0
28.75 4.25 0
29.75 4.25 0
30.75 4.25 0
31.75 4.25 0
32.75 4.25 0
33.75 4.25 0
34.75 4.25 0
35.75 4.25 0
36.75 4.25 0
37.75 4.25 0
38.75 4.25 0
39.75 4.25 0
40.75 4.25 0
41.75 4.25 0
42.75 4.25 0
43.75 4.25 0
44.75 4.25 0
45.75 4.25 0
46.75 4.25 0
47.75 4.25 0
48.75 4.25 0
49.75 4.25 0
0.25 4.75 0
1.25 4.75 0
2.25 4.75 0
3.25 4.75 0
4.25 4.75 0
5.25 4.75 0
6.25 4.75 0
7.25 4.75 0
8.25 4.75 0
9.25 4.75 0
10.25 4.75 0
11.25 4.75 0
12.25 4.75 0
13.25 4.75 0
14.25 4.75 0
15.25 4.75 0
16.25 4.75 0
17.25 4.75 0
18.25 4.75 0
19.25 4.75 0
20.25 4.75 0
21.25 4.75 0
22.25 4.75 0
23.25 4.75 0
24.25 4.75 0
25.25 4.75 0
26.25 4.75 0
27.25 4.75 0
28.25 4.75 0
29.25 4.75 0
30.25 4.75 0
31.25 4.75 0
32.25 4.75 0
33.25 4.75 0
34.25 4.75 0
35.25 4.75 0
36.25 4.75 0
37.25 4.75 0
38.25 4.75 0
39.25 4.75 0
40.25 4.75 0
41.25 4.75 0
42.25 4.75 0
43.25 4.75 0
44.25 4.75 0
45.25 4.75 0
46.25 4.75 0
47.25 4.75 0
48.25 4.75 0
49.25 4.75 0
0.75 5.25 0
1.75 5.25 0
2.75 5.25 0
3.75 5.25 0
4.75 5.25 0
5.75 5.25 0
6.75 5.25 0
7.75 5.25 0
8.75 5.25 0
9.75 5.25 0
10.75 5.25 0
11.75 5.25 0
12.75 5.25 0
13.75 5.25 0
14.75 5.25 0
15.75 5.25 0
16.75 5.25 0
17.75 5.25 0
18.75 5.25 0
19.75 5.25 0
20.75 5.25 0
21.75 5.25 0
22.75 5.25 0
23.75 5.25 0
24.75 5.25 0
25.75 5.25 0
26.75 5.25 0
27.75 5.25 0
28.75 5.25 0
29.75 5.25 0
30.75 5.25 0
31.75 5.25 0
32.75 5.25 0
33.75 5.25 0
34.75 5.25 0
35.75 5.25 0
36.75 5.25 0
37.75 5.25 0
38.75 5.25 0
39.75 5.25 0
40.75 5.25 0
41.75 5.25 0
42.75 5.25 0
43.75 5.25 0
44.75 5.25 0
45.75 5.25 0
46.75 5.25 0
47.75 5.25 0
48.75 5.25 0
49.75 5.25 0
0.25 5.75 0
1.25 5.75 0
2.25 5.75 0
3.25 5.75 0
4.25 5.75 0
5.25 5.75 0
6.25 5.75 0
7.25 5.75 0
8.25 5.75 0
9.25 5.75 0
10.25 5.75 0
11.25 5.75 0
12.25 5.75 0
13.25 5.75 0
14.25 5.75 0
15.25 5.75 0
16.25 5.75 0
17.25 5.75 0
18.25 5.75 0
19.25 5.75 0
20.25 5.75 0
21.25 5.75 0
22.25 5.75 0
23.25 5.75 0
24.25 5.75 0
25.25 5.75 0
26.25 5.75 0
27.25 5.75 0
28.25 5.75 0
29.25 5.75 0
30.25 5.75 0
31.25 5.75 0
32.25 5.75 0
33.25 5.75 0
34.25 5.75 0
35.25 5.75 0
36.25 5.75 0
37.25 5.75 0
38.25 5.75 0
39.25 5.75 0
40.25 5.75 0
41.25 5.75 0
42.25 5.75 0
43.25 5.75 0
44.25 5.75 0
45.25 5.75 0
46.25 5.75 0
47.25 5.75 0
48.25 5.75 0
49.25 5.75 0
0.75 6.25 0
1.75 6.25 0
2.75 6.25 0
3.75 6.25 0
4.75 6.25 0
5.75 6.25 0
6.75 6.25 0
7.75 6.25 0
8.75 6.25 0
9.75 6.25 0
10.75 6.25 0
11.75 6.25 0
12.75 6.25 0
13.75 6.25 0
14.75 6.25 0
15.75 6.25 0
16.75 6.25 0
17.75 6.25 0
18.75 6.25 0
19.75 6.25 0
20.75 6.25 0
21.75 6.25 0
22.75 6.25 0
23.75 6.25 0
24.75 6.25 0
25.75 6.25 0
26.75 6.25 0
27.75 6.25 0
28.75 6.25 0
29.75 6.25 0
30.75 6.25 0
31.75 6.25 0
32.75 6.25 0
33.75 6.25 0
34.75 6.25 0
35.75 6.25 0
36.75 6.25 0
37.75 6.25 0
38.75 6.25 0
39.75 6.25 0
40.75 6.25 0
41.75 6.25 0
42.75 6.25 0
43.75 6.25 0
44.75 6.25 0
45.75 6.25 0
46.75 6.25 0
47.75 6.25 0
48.75 6.25 0
49.75 6.25 0
0.25 6.75 0
1.25 6.75 0
2.25 6.75 0
3.25 6.75 0
4.25 6.75 0
5.25 6.75 0
6.25 6.75 0
7.25 6.75 0
8.25 6.75 0
9.25 6.75 0
10.25 6.75 0
11.25 6.75 0
12.25 6.75 0
13.25 6.75 0
14.25 6.75 0
15.25 6.75 0
16.25 6.75 0
17.25 6.75 0
18.25 6.75 0
19.25 6.75 0
20.25 6.75 0
21.25 6.75 0
22.25 6.75 0
23.25 6.75 0
24.25 6.75 0
25.25 6.75 0
26.25 6.75 0
27.25 6.75 0
28.25 6.75 0
29.25 6.75 0
30.25 6.75 0
31.25 6.75 0
32.25 6.75 0
33.25 6.75 0
34.25 6.75 0
35.25 6.75 0
36.25 6.75 0
37.25 6.75 0
38.25 6.75 0
39.25 6.75 0
40.25 6.75 0
41.25 6.75 0
42.25 6.75 0
43.25 6.75 0
44.25 6.75 0
45.25 6.75 0
46.25 6.75 0
47.25 6.75 0
48.25 6.75 0
49.25 6.75 0
0.75 7.25 0
1.75 7.25 0
2.75 7.25 0
3.75 7.25 0
4.75 7.25 0
5.75 7.25 0
6.75 7.25 0
7.75 7.25 0
8.75 7.25 0
9.75 7.25 0
10.75 7.25 0
11.75 7.25 0
12.75 7.25 0
13.75 7.25 0
14.75 7.25 0
15.75 7.25 0
16.75 7.25 0
17.75 7.25 0
18.75 7.25 0
19.75 7.25 0
20.75 7.25 0
21.75 7.25 0
22.75 7.25 0
23.75 7.25 0
24.75 7.25 0
25.75 7.25 0
26.75 7.25 0
27.75 7.25 0
28.75 7.25 0
29.75 7.25 0
30.75 7.25 0
31.75 7.25 0
32.75 7.25 0
33.75 7.25 0
34.75 7.25 0
35.75 7.25 0
36.75 7.25 0
37.75 7.25 0
38.75 7.25 0
39.75 7.25 0
40.75 7.25 0
41.75 7.25 0
42.75 7.25 0
43.75 7.25 0
44.75 7.25 0
45.75 7.25 0
46.75 7.25 0
47.75 7.25 0
48.75 7.25 0
49.75 7.25 0
0.25 7.75 0
1.25 7.75 0
2.25 7.75 0
3.25 7.75 0
4.25 7.75 0
5.25 7.75 0
6.25 7.75 0
7.25 7.75 0
8.25 7.75 0
9.25 7.75 0
10.25 7.75 0
11.25 7.75 0
12.25 7.75 0
13.25 7.75 0
14.25 7.75 0
15.25 7.75 0
16.25 7.75 0
17.25 7.75 0
18.25 7.75 0
19.25 7.75 0
20.25 7.75 0
21.25 7.75 0
[...]
POINT_DATA 5000
VECTORS velocity float
-0.280521 -0.311516 0.907891
-0.230124 -0.361285 0.903613
-0.149265 -0.44784 0.881566
-0.0476876 -0.5718 0.819006
0.0569877 -0.709733 0.702162
0.147316 -0.833497 0.532523
0.20983 -0.922296 0.324564
0.236233 -0.966566 0.099725
0.223419 -0.967357 -0.119603
0.173111 -0.933361 -0.314436
0.0911206 -0.877085 -0.471614
-0.0139115 -0.811269 -0.584507
-0.132131 -0.746287 -0.652379
-0.254061 -0.688847 -0.678928
-0.371794 -0.641934 -0.67059
-0.47961 -0.605571 -0.635026
-0.574085 -0.577922 -0.580029
-0.653842 -0.556338 -0.512814
-0.719106 -0.538163 -0.439622
-0.771186 -0.521229 -0.365503
-0.811982 -0.50408 -0.29426
-0.84359 -0.485937 -0.228522
-0.868031 -0.466521 -0.16994
-0.887117 -0.445818 -0.119455
-0.90239 -0.423882 -0.0775688
-0.915112 -0.400729 -0.0445675
-0.926268 -0.376297 -0.0206683
-0.936559 -0.350458 -0.00609348
-0.946376 -0.323066 -0.00107274
-0.955782 -0.294018 -0.00578042
-0.964497 -0.263318 -0.0202153
-0.971926 -0.231128 -0.0440466
-0.977256 -0.197796 -0.0764678
-0.979629 -0.163849 -0.116109
-0.978352 -0.129952 -0.161059
-0.973106 -0.0968371 -0.209015
-0.964068 -0.065211 -0.257529
-0.951909 -0.0356527 -0.3043
-0.937671 -0.00850844 -0.347419
-0.92255 0.0162135 -0.385538
-0.907627 0.0389574 -0.417967
-0.893593 0.0607649 -0.444747
-0.880469 0.0834563 -0.466701
-0.867324 0.109818 -0.485478
-0.851909 0.143703 -0.503588
-0.82997 0.189829 -0.524514
-0.793972 0.252628 -0.552981
-0.731597 0.332358 -0.595234
-0.629007 0.4176 -0.655714
-0.488956 0.488956 -0.722387
-0.311516 -0.280521 0.907891
-0.275376 -0.324358 0.904964
-0.19245 -0.39147 0.899841
-0.0780897 -0.495756 0.864944
0.0472058 -0.625207 0.77903
0.162226 -0.753774 0.636795
0.250731 -0.858218 0.447879
0.302551 -0.924724 0.230971
0.313147 -0.949674 0.00769379
0.282797 -0.937677 -0.201959
0.215826 -0.898457 -0.382354
0.119698 -0.843628 -0.523415
0.00382441 -0.784032 -0.620708
-0.12185 -0.727958 -0.674708
-0.248191 -0.680368 -0.689565
-0.367859 -0.643033 -0.671706
-0.475784 -0.615253 -0.628564
-0.569189 -0.594833 -0.567625
-0.647276 -0.578985 -0.495792
-0.710756 -0.565019 -0.419021
-0.761302 -0.550786 -0.342133
-0.801055 -0.534856 -0.268774
-0.832248 -0.516492 -0.201493
-0.856966 -0.495445 -0.14193
-0.87704 -0.471707 -0.0910694
-0.89401 -0.445305 -0.049493
-0.909107 -0.416191 -0.0175849
-0.923233 -0.384217 0.00433681
-0.936916 -0.34919 0.0159682
-0.950273 -0.310951 0.0170505
-0.962974 -0.269491 0.00747835
-0.974268 -0.225044 -0.0125353
-0.983093 -0.178157 -0.0422819
-0.988284 -0.129714 -0.0804297
-0.988852 -0.0808843 -0.125014
-0.984266 -0.033005 -0.173581
-0.974632 0.0125837 -0.22346
-0.960716 0.0547179 -0.272087
-0.943802 0.0925659 -0.317285
-0.925436 0.125737 -0.357434
-0.907115 0.154356 -0.391557
-0.88997 0.17916 -0.419351
-0.874463 0.201634 -0.4412
-0.86012 0.224195 -0.458181
-0.84526 0.250347 -0.472083
-0.826563 0.284669 -0.485548
-0.798155 0.332194 -0.502589
-0.749868 0.395902 -0.530056
-0.666112 0.469622 -0.57944
-0.536244 0.536244 -0.651832
-0.324358 -0.275376 0.904964
-0.247884 -0.31665 0.91558
-0.130505 -0.395488 0.909152
0.00993181 -0.509633 0.860335
0.147955 -0.639322 0.754571
0.263139 -0.759769 0.594566
0.342454 -0.852489 0.394953
0.379549 -0.908323 0.175759
0.373311 -0.926725 -0.0426586
0.326637 -0.913439 -0.242771
0.245542 -0.877725 -0.411471
0.138327 -0.829811 -0.540629
0.0145801 -0.778901 -0.626977
-0.116001 -0.731871 -0.671497
-0.244749 -0.692708 -0.67842
-0.364868 -0.662634 -0.654055
-0.471843 -0.640736 -0.605658
-0.563423 -0.624802 -0.540534
-0.639303 -0.612109 -0.465419
-0.700619 -0.600042 -0.386112
-0.749394 -0.586495 -0.307296
-0.788021 -0.570053 -0.232512
-0.818875 -0.549968 -0.164252
-0.844105 -0.525963 -0.104157
-0.86555 -0.497982 -0.0532668
-0.884713 -0.465975 -0.0122651
-0.902736 -0.429804 0.0183379
-0.920345 -0.389247 0.0380989
-0.93778 -0.344086 0.0466331
-0.954734 -0.294234 0.0437008
-0.970359 -0.239877 0.0293745
-0.983365 -0.181589 0.00423721
-0.992258 -0.120403 -0.0304565
-0.995674 -0.0578078 -0.0727388
-0.992757 0.00434683 -0.120059
-0.983434 0.0640556 -0.169572
-0.9685 0.119431 -0.218506
-0.949473 0.168978 -0.264476
-0.928278 0.211791 -0.305688
-0.906859 0.247636 -0.341002
-0.886801 0.276984 -0.369952
-0.868981 0.301081 -0.392711
-0.853301 0.322071 -0.410057
-0.838455 0.34317 -0.423353
-0.821652 0.368755 -0.434635
-0.798024 0.404092 -0.447064
-0.759351 0.453781 -0.466336
-0.692094 0.516736 -0.503973
-0.579648 0.579648 -0.572727
-0.4176 0.629007 -0.655714
-0.361285 -0.230124 0.903613
-0.31665 -0.247884 0.91558
-0.203006 -0.294074 0.933975
-0.0532675 -0.382627 0.922366
0.105823 -0.502384 0.858144
0.248755 -0.630354 0.735374
0.358321 -0.74478 0.562946
0.425438 -0.83124 0.35783
0.447195 -0.88348 0.13957
0.425048 -0.9022 -0.0732708
0.363646 -0.893001 -0.265161
0.270057 -0.86415 -0.424634
0.153064 -0.824568 -0.544664
0.0223012 -0.782243 -0.622575
-0.112756 -0.743148 -0.659558
-0.243796 -0.710744 -0.659854
-0.364427 -0.686045 -0.62971
-0.470553 -0.668144 -0.576335
-0.560353 -0.654942 -0.507006
-0.633956 -0.643854 -0.428429
-0.692923 -0.632371 -0.346358
-0.739659 -0.618435 -0.265411
-0.776851 -0.60063 -0.189065
-0.807076 -0.578172 -0.119774
-0.832591 -0.550717 -0.0591863
-0.855269 -0.518116 -0.00840238
-0.876578 -0.480209 0.0317943
-0.897525 -0.436756 0.0607748
-0.918572 -0.387481 0.078004
-0.939546 -0.332187 0.0830935
-0.959601 -0.270921 0.0759532
-0.977287 -0.204111 0.0569996
-0.990779 -0.132702 0.0273433
-0.998241 -0.0582303 -0.0111319
-0.998291 0.017177 -0.0558644
-0.990422 0.0909453 -0.103892
-0.975246 0.160366 -0.152242
-0.954427 0.223032 -0.198307
-0.930325 0.277224 -0.24009
-0.905482 0.322112 -0.276306
-0.882103 0.357795 -0.306395
-0.8616 0.385278 -0.330463
-0.844287 0.406505 -0.34919
-0.829162 0.424472 -0.36375
-0.813742 0.443372 -0.375826
-0.793728 0.468543 -0.387897
-0.76221 0.505558 -0.404287
-0.708087 0.556921 -0.43411
-0.615265 0.615265 -0.492847
-0.469622 0.666112 -0.57944
-0.39147 -0.19245 0.899841
-0.294074 -0.203006 0.933975
-0.142976 -0.255971 0.956053
0.0325881 -0.352749 0.935151
0.202585 -0.475711 0.855955
0.344494 -0.602251 0.720151
0.445351 -0.714058 0.54017
0.499667 -0.799586 0.333159
0.50702 -0.853917 0.117291
0.47052 -0.877739 -0.0904736
0.395939 -0.875852 -0.275891
0.291059 -0.855433 -0.428391
0.165012 -0.824357 -0.541486
0.0274824 -0.789798 -0.61275
-0.112181 -0.75724 -0.643431
-0.245864 -0.729941 -0.637759
-0.367409 -0.708933 -0.602017
-0.473008 -0.693441 -0.54351
-0.561194 -0.681543 -0.469638
-0.632516 -0.670815 -0.38721
-0.688981 -0.658852 -0.302025
-0.733417 -0.643636 -0.218704
-0.768866 -0.623739 -0.140698
-0.798154 -0.598321 -0.0704462
-0.823692 -0.566956 -0.00961564
-0.84741 -0.529381 0.0406364
-0.870716 -0.485326 0.0794445
-0.894413 -0.434472 0.106112
-0.918585 -0.376529 0.120112
-0.942524 -0.31138 0.121207
-0.964752 -0.239231 0.109645
-0.983208 -0.160762 0.0863619
-0.995595 -0.0772803 0.0530824
-0.999883 0.00915372 0.0122673
-0.994858 0.0957056 -0.0331232
-0.980595 0.178981 -0.0799993
-0.958612 0.255545 -0.125539
-0.931612 0.322559 -0.167498
-0.902858 0.378254 -0.204382
-0.875423 0.422096 -0.235519
-0.851523 0.45474 -0.260999
-0.832056 0.477933 -0.281536
-0.816386 0.494497 -0.298306
-0.802237 0.508463 -0.312861
-0.785572 0.525156 -0.327243
-0.760201 0.550736 -0.344651
-0.716772 0.590061 -0.371573
-0.641301 0.641301 -0.421266
-0.516736 0.692094 -0.503973
-0.332358 0.731597 -0.595234
-0.44784 -0.149265 0.881566
-0.395488 -0.130505 0.909152
-0.255971 -0.142976 0.956053
-0.07243 -0.204545 0.976174
0.120627 -0.308205 0.943641
0.294638 -0.433442 0.851655
0.431623 -0.560042 0.707146
0.522714 -0.672741 0.52363
0.565028 -0.761696 0.317116
0.559603 -0.822181 0.104223
0.510488 -0.854139 -0.0992353
0.424189 -0.861299 -0.279692
0.309027 -0.849834 -0.426948
0.174422 -0.826851 -0.534692
0.030161 -0.799051 -0.600506
-0.114384 -0.771723 -0.625588
-0.251103 -0.748149 -0.614183
-0.373913 -0.729504 -0.572724
-0.479196 -0.715212 -0.508766
-0.565822 -0.703539 -0.429975
-0.634781 -0.692211 -0.34336
-0.688579 -0.678909 -0.254837
-0.730524 -0.661629 -0.169063
-0.764061 -0.638906 -0.0894952
-0.792312 -0.609834 -0.0185758
-0.817854 -0.57389 0.0420011
-0.842651 -0.530709 0.0910319
-0.867973 -0.479935 0.127615
-0.894282 -0.421226 0.151087
-0.921133 -0.354351 0.161089
-0.947154 -0.279318 0.157739
-0.970189 -0.196519 0.141824
-0.987607 -0.106906 0.114906
-0.996777 -0.012209 0.0792864
-0.995676 0.0848522 0.0378028
-0.983544 0.180553 -0.00649005
-0.96136 0.270589 -0.0506747
-0.931857 0.350893 -0.0922842
-0.898948 0.418458 -0.129556
-0.866759 0.471817 -0.161612
-0.838607 0.511088 -0.188487
-0.816272 0.537769 -0.210962
-0.799656 0.554528 -0.230326
-0.786721 0.565226 -0.248173
-0.773518 0.575093 -0.266343
-0.754135 0.59058 -0.287221
-0.720233 0.618035 -0.315116
-0.659838 0.659838 -0.359482
-0.556921 0.708087 -0.43411
-0.395902 0.749868 -0.530056
-0.495756 -0.0780897 0.864944
-0.382627 -0.0532675 0.922366
-0.204545 -0.07243 0.976174
0.00321505 -0.143532 0.98964
0.205603 -0.252884 0.945398
0.37835 -0.380353 0.843909
0.508352 -0.50876 0.694796
0.589961 -0.62522 0.510927
0.621783 -0.720691 0.306579
0.605472 -0.789938 0.0969635
0.545514 -0.83177 -0.102824
0.448883 -0.84877 -0.279452
0.324305 -0.846244 -0.422725
0.181479 -0.830764 -0.526209
0.0304058 -0.808798 -0.5873
-0.119316 -0.785639 -0.607071
-0.259378 -0.764723 -0.589849
-0.383639 -0.747439 -0.542361
-0.488639 -0.733426 -0.472566
-0.573609 -0.721134 -0.388508
-0.640043 -0.708418 -0.297471
-0.691015 -0.693009 -0.205516
-0.730377 -0.672886 -0.117364
-0.762026 -0.646517 -0.0364916
-0.789392 -0.612911 0.0346376
-0.815196 -0.571456 0.0943032
-0.84134 -0.521713 0.141288
-0.868796 -0.463313 0.174744
-0.897493 -0.395973 0.194197
-0.92628 -0.31959 0.199671
-0.953032 -0.234349 0.191859
-0.974931 -0.140883 0.172224
-0.988902 -0.0405089 0.142939
-0.992204 0.0644234 0.106677
-0.983165 0.170259 0.0663231
-0.961923 0.272203 0.0246982
-0.930826 0.365128 -0.0156647
-0.894132 0.444684 -0.0527639
-0.856983 0.508213 -0.0854403
-0.824006 0.555084 -0.11356
-0.798155 0.586455 -0.13791
-0.780128 0.604837 -0.159914
-0.768264 0.613915 -0.181327
-0.758659 0.618729 -0.203988
-0.745381 0.625782 -0.229794
-0.720505 0.642283 -0.261428
-0.673471 0.673471 -0.304754
-0.590061 0.716772 -0.371573
-0.453781 0.759351 -0.466336
-0.252628 0.793972 -0.552981
-0.5718 -0.0476876 0.819006
-0.509633 0.00993181 0.860335
-0.352749 0.0325881 0.935151
-0.143532 0.00321505 0.98964
0.0794198 -0.0770658 0.993858
0.284295 -0.191158 0.939487
0.452284 -0.32112 0.832058
0.574606 -0.452722 0.681814
0.647719 -0.57485 0.500008
0.67078 -0.678695 0.299045
0.645442 -0.758133 0.092952
0.576263 -0.810675 -0.103574
0.470478 -0.837768 -0.277118
0.337135 -0.843966 -0.417206
0.186257 -0.835453 -0.517036
0.0282383 -0.818603 -0.573665
-0.126876 -0.798823 -0.588034
-0.270408 -0.779773 -0.564653
-0.396089 -0.763089 -0.510695
-0.500634 -0.748627 -0.434654
-0.583701 -0.735014 -0.345034
-0.647373 -0.720205 -0.249425
-0.695372 -0.701944 -0.154054
-0.732164 -0.678142 -0.0637149
-0.762132 -0.647169 0.018078
-0.788996 -0.607943 0.0888327
-0.815521 -0.559794 0.146821
-0.843369 -0.502286 0.190887
-0.872977 -0.435132 0.220389
-0.903517 -0.358203 0.235261
-0.932989 -0.271596 0.236151
-0.958496 -0.175743 0.224499
-0.97667 -0.0716293 0.202447
-0.984232 0.0388306 0.172568
-0.978713 0.15232 0.137548
-0.959336 0.263979 0.0999474
-0.92775 0.367993 0.0621411
-0.888147 0.458811 0.0262072
-0.846424 0.532471 -0.00642717
-0.808526 0.587397 -0.035362
-0.778788 0.624287 -0.0612744
-0.758962 0.645474 -0.0856675
-0.747969 0.65447 -0.110506
-0.742031 0.656048 -0.137808
-0.735039 0.656551 -0.169291
-0.719023 0.663587 -0.206538
-0.684182 0.684182 -0.252568
-0.618035 0.720233 -0.315116
-0.505558 0.76221 -0.404287
-0.332194 0.798155 -0.502589
-0.625207 0.0472058 0.77903
-0.502384 0.105823 0.858144
-0.308205 0.120627 0.943641
-0.0770658 0.0794198 0.993858
0.152909 -0.00890079 0.9882
0.355212 -0.126934 0.926127
0.516502 -0.25955 0.816002
0.631309 -0.395135 0.667321
0.69719 -0.523903 0.489339
0.713167 -0.636976 0.292668
0.680462 -0.727191 0.090357
0.603433 -0.790723 -0.103076
0.489419 -0.827911 -0.27392
0.347758 -0.842605 -0.411194
0.188905 -0.84066 -0.507549
0.0238425 -0.828411 -0.559614
-0.136738 -0.811431 -0.568228
-0.283675 -0.793641 -0.538203
-0.410555 -0.776941 -0.477291
-0.514322 -0.761413 -0.394619
-0.595147 -0.745842 -0.2992
-0.655797 -0.728251 -0.19895
-0.700733 -0.706342 -0.100271
-0.735104 -0.677907 -0.00804162
-0.763789 -0.641191 0.0741684
-0.790713 -0.595047 0.143844
-0.818497 -0.538829 0.199312
-0.848286 -0.472219 0.239624
-0.879705 -0.395124 0.264567
-0.910965 -0.307658 0.274752
-0.939158 -0.210203 0.271657
-0.960713 -0.10356 0.257498
-0.971966 0.0106991 0.23488
-0.969843 0.12968 0.206367
-0.952768 0.248756 0.174223
-0.921586 0.361864 0.140476
-0.880086 0.462588 0.107054
-0.834544 0.545739 0.0755246
-0.79205 0.608677 0.0465737
-0.75837 0.651525 0.0197448
-0.736504 0.676402 -0.00644361
-0.726185 0.68665 -0.0341609
-0.723928 0.686736 -0.0657434
-0.723426 0.682671 -0.103031
-0.716343 0.682089 -0.146993
-0.693028 0.693028 -0.198555
-0.642283 0.720505 -0.261428
-0.550736 0.760201 -0.344651
-0.404092 0.798024 -0.447064
-0.189829 0.82997 -0.524514
-0.709733 0.0569877 0.702162
-0.639322 0.147955 0.754571
-0.475711 0.202585 0.855955
-0.252884 0.205603 0.945398
-0.00890079 0.152909 0.9882
0.221582 0.0579768 0.973417
0.418043 -0.0632154 0.906225
0.571855 -0.198372 0.796009
0.679781 -0.338126 0.650821
0.739724 -0.473739 0.47789
0.750119 -0.596162 0.286204
0.711463 -0.697193 0.0879831
0.627713 -0.771692 -0.102313
0.506198 -0.818886 -0.270535
0.356552 -0.841908 -0.405045
0.18979 -0.846263 -0.497814
0.0176654 -0.838251 -0.544998
-0.14833 -0.823635 -0.547379
-0.298476 -0.806617 -0.510177
-0.426229 -0.789376 -0.441832
-0.528829 -0.772213 -0.352175
-0.607056 -0.754055 -0.250768
-0.664467 -0.732943 -0.145872
-0.706365 -0.706475 -0.0440737
-0.73864 -0.672271 0.0496358
-0.766621 -0.628464 0.131627
-0.794256 -0.573928 0.199408
-0.823717 -0.508174 0.251495
-0.855296 -0.431139 0.287382
-0.887539 -0.343032 0.307578
-0.917582 -0.244314 0.313613
-0.941692 -0.135779 0.307865
-0.955895 -0.0188157 0.293106
-0.956676 0.104028 0.271934
-0.941851 0.228492 0.246391
-0.911541 0.348612 0.218087
-0.868962 0.457527 0.188614
-0.820424 0.549059 0.159496
-0.77387 0.619514 0.131636
-0.736412 0.668358 0.104859
-0.712386 0.69746 0.0778165
-0.702541 0.710009 0.0481884
-0.703909 0.710168 0.0132187
-0.710092 0.703497 -0.0293498
-0.712203 0.69736 -0.0803463
-0.700214 0.700214 -0.139282
-0.663587 0.719023 -0.206538
-0.59058 0.754135 -0.287221
-0.468543 0.793728 -0.387897
-0.284669 0.826563 -0.485548
-0.753774 0.162226 0.636795
-0.630354 0.248755 0.735374
-0.433442 0.294638 0.851655
-0.191158 0.284295 0.939487
0.0579768 0.221582 0.973417
0.284364 0.121531 0.950982
0.473209 -0.00198618 0.880948
0.619521 -0.13928 0.772525
0.721398 -0.282899 0.632103
0.776593 -0.425006 0.465052
0.782697 -0.556413 0.278908
0.739299 -0.667973 0.0851388
0.64979 -0.753264 -0.101812
0.521401 -0.810369 -0.267289
0.364079 -0.841624 -0.398892
0.189506 -0.852123 -0.487825
0.0103598 -0.848105 -0.529726
-0.160938 -0.835522 -0.525359
-0.314054 -0.818874 -0.480432
-0.442333 -0.800617 -0.40417
-0.543386 -0.781263 -0.307182
-0.618708 -0.759837 -0.199623
-0.672767 -0.734344 -0.0901255
-0.711819 -0.702213 0.0145042
-0.742512 -0.66088 0.109148
-0.770481 -0.608446 0.190141
-0.799384 -0.543958 0.255138
-0.830552 -0.467252 0.303084
-0.863085 -0.378648 0.334232
-0.89426 -0.278789 0.350108
-0.920196 -0.16862 0.353281
-0.936626 -0.0495459 0.34681
-0.939676 0.0760808 0.333497
-0.926726 0.204344 0.315313
-0.897347 0.329588 0.293498
-0.854165 0.444885 0.269221
-0.803289 0.543403 0.243805
-0.753214 0.620511 0.218255
-0.712212 0.675002 0.192681
-0.685943 0.708474 0.165972
-0.676308 0.724002 0.135749
-0.6811 0.725495 0.0987955
-0.694055 0.71803 0.0521647
-0.705713 0.708478 -0.00532906
-0.705249 0.705249 -0.0724377
-0.682089 0.716343 -0.146993
-0.625782 0.745381 -0.229794
-0.525156 0.785572 -0.327243
-0.368755 0.821652 -0.434635
-0.143703 0.851909 -0.503588
-0.833497 0.147316 0.532523
-0.759769 0.263139 0.594566
-0.602251 0.344494 0.720151
-0.380353 0.37835 0.843909
-0.126934 0.355212 0.926127
0.121531 0.284364 0.950982
0.340987 0.180649 0.922547
0.521523 0.0556897 0.851418
0.660723 -0.0831081 0.746015
0.757392 -0.229942 0.611133
0.808876 -0.377828 0.450518
0.811805 -0.517555 0.270389
0.764738 -0.639169 0.0814755
0.670363 -0.735013 -0.101826
0.535715 -0.801957 -0.264337
0.371049 -0.841433 -0.392828
0.188789 -0.858029 -0.477645
0.00267183 -0.857873 -0.513855
-0.173834 -0.847096 -0.502206
-0.329713 -0.830488 -0.448975
-0.458215 -0.810769 -0.364271
-0.557401 -0.788621 -0.259577
-0.629608 -0.763126 -0.14571
-0.680359 -0.732192 -0.031727
-0.716946 -0.693048 0.0753156
-0.74671 -0.643012 0.170177
-0.775307 -0.580315 0.249265
-0.80568 -0.504377 0.310617
-0.837895 -0.415514 0.35395
-0.869572 -0.314594 0.380624
-0.896725 -0.202853 0.393364
-0.91477 -0.0819077 0.395585
-0.919479 0.0458868 0.390452
-0.907904 0.176839 0.38005
-0.879244 0.305671 0.365371
-0.835622 0.425681 0.347176
-0.782816 0.529708 0.326509
-0.729627 0.612378 0.304365
-0.685268 0.671851 0.281113
-0.656619 0.709459 0.255967
-0.646797 0.728213 0.226625
-0.654576 0.731874 0.18945
-0.674131 0.725105 0.140609
-0.695597 0.714179 0.0780575
-0.707103 0.707103 0.00309543
-0.69736 0.712203 -0.0803463
-0.656551 0.735039 -0.169291
-0.575093 0.773518 -0.266343
-0.443372 0.813742 -0.375826
-0.250347 0.84526 -0.472083
-0.858218 0.250731 0.447879
-0.74478 0.358321 0.562946
-0.560042 0.431623 0.707146
-0.32112 0.452284 0.832058
-0.0632154 0.418043 0.906225
0.180649 0.340987 0.922547
0.391724 0.234956 0.889578
0.563916 0.109448 0.818548
0.696552 -0.0300734 0.716876
0.788774 -0.179251 0.587967
0.837432 -0.331969 0.43417
0.838182 -0.479168 0.26048
0.788471 -0.610254 0.076837
0.69014 -0.716382 -0.102489
0.5499 -0.793135 -0.261814
0.378265 -0.840912 -0.387017
0.188441 -0.863684 -0.467483
-0.00465295 -0.867392 -0.497603
-0.186356 -0.858308 -0.478098
-0.344881 -0.841478 -0.415898
-0.473391 -0.819834 -0.322138
-0.570493 -0.794183 -0.20931
-0.639516 -0.763608 -0.0890046
-0.687178 -0.725901 0.0292343
-0.721832 -0.678153 0.138084
-0.751312 -0.617723 0.232267
-0.780882 -0.54319 0.308492
-0.812268 -0.454531 0.365543
-0.843862 -0.352742 0.404314
-0.871713 -0.23944 0.427534
-0.890892 -0.116645 0.438983
-0.896767 0.0130645 0.44231
-0.886089 0.146039 0.439907
-0.85783 0.277343 0.432676
-0.813728 0.400687 0.421067
-0.759178 0.508864 0.405841
-0.703112 0.595953 0.38791
-0.655478 0.659564 0.367865
-0.624228 0.700779 0.345323
-0.613664 0.722596 0.318231
-0.623702 0.72876 0.282675
-0.64929 0.723688 0.233877
-0.680498 0.71311 0.168513
-0.704415 0.704415 0.0871722
-0.708478 0.705713 -0.00532906
-0.682671 0.723426 -0.103031
-0.618729 0.758659 -0.203988
-0.508463 0.802237 -0.312861
-0.34317 0.838455 -0.423353
-0.109818 0.867324 -0.485478
-0.922296 0.20983 0.324564
-0.852489 0.342454 0.394953
-0.714058 0.445351 0.54017
-0.50876 0.508352 0.694796
-0.25955 0.516502 0.816002
-0.00198618 0.473209 0.880948
0.234956 0.391724 0.889578
0.437127 0.284568 0.853195
0.601271 0.159381 0.782988
0.72789 0.0200023 0.685402
0.816302 -0.130508 0.562688
0.862903 -0.286966 0.415992
0.862414 -0.440657 0.249125
0.811112 -0.580548 0.0711427
0.709823 -0.696671 -0.103925
0.564757 -0.783256 -0.259923
0.386571 -0.839535 -0.381765
0.18926 -0.86872 -0.457718
-0.0109292 -0.876463 -0.481345
-0.197965 -0.869092 -0.45331
-0.359154 -0.851823 -0.381321
-0.487579 -0.82772 -0.277752
-0.582515 -0.797647 -0.156315
-0.648443 -0.76069 -0.02952
-0.693375 -0.714609 0.0925481
-0.726647 -0.656532 0.202364
-0.756259 -0.584075 0.294836
-0.786557 -0.496366 0.367354
-0.817507 -0.394165 0.419901
-0.84557 -0.279413 0.454906
-0.865513 -0.154694 0.476401
-0.872207 -0.0230567 0.488594
-0.862052 0.111659 0.494368
-0.833886 0.244742 0.494707
-0.789178 0.370418 0.489887
-0.732924 0.481647 0.480457
-0.674077 0.572135 0.467207
-0.623155 0.639027 0.450912
-0.589012 0.68318 0.43166