# vtk DataFile Version 2.0
tmp/0.000.00-10.000.000.001.0056.vtk
ASCII
DATASET UNSTRUCTURED_GRID
POINTS 5101 float
0 0 0
1 0 0
2 0 0
3 0 0
4 0 0
5 0 0
6 0 0
7 0 0
8 0 0
9 0 0
10 0 0
11 0 0
12 0 0
13 0 0
14 0 0
15 0 0
16 0 0
17 0 0
18 0 0
19 0 0
20 0 0
21 0 0
22 0 0
23 0 0
24 0 0
25 0 0
26 0 0
27 0 0
28 0 0
29 0 0
30 0 0
31 0 0
32 0 0
33 0 0
34 0 0
35 0 0
36 0 0
37 0 0
38 0 0
39 0 0
40 0 0
41 0 0
42 0 0
43 0 0
44 0 0
45 0 0
46 0 0
47 0 0
48 0 0
49 0 0
50 0 0
0.5 0.5 0
1.5 0.5 0
2.5 0.5 0
3.5 0.5 0
4.5 0.5 0
5.5 0.5 0
6.5 0.5 0
7.5 0.5 0
8.5 0.5 0
9.5 0.5 0
10.5 0.5 0
11.5 0.5 0
12.5 0.5 0
13.5 0.5 0
14.5 0.5 0
15.5 0.5 0
16.5 0.5 0
17.5 0.5 0
18.5 0.5 0
19.5 0.5 0
20.5 0.5 0
21.5 0.5 0
22.5 0.5 0
23.5 0.5 0
24.5 0.5 0
25.5 0.5 0
26.5 0.5 0
27.5 0.5 0
28.5 0.5 0
29.5 0.5 0
30.5 0.5 0
31.5 0.5 0
32.5 0.5 0
33.5 0.5 0
34.5 0.5 0
35.5 0.5 0
36.5 0.5 0
37.5 0.5 0
38.5 0.5 0
39.5 0.5 0
40.5 0.5 0
41.5 0.5 0
42.5 0.5 0
43.5 0.5 0
44.5 0.5 0
45.5 0.5 0
46.5 0.5 0
47.5 0.5 0
48.5 0.5 0
49.5 0.5 0
0 1 0
1 1 0
2 1 0
3 1 0
4 1 0
5 1 0
6 1 0
7 1 0
8 1 0
9 1 0
10 1 0
11 1 0
12 1 0
13 1 0
14 1 0
15 1 0
16 1 0
17 1 0
18 1 0
19 1 0
20 1 0
21 1 0
22 1 0
23 1 0
24 1 0
25 1 0
26 1 0
27 1 0
28 1 0
29 1 0
30 1 0
31 1 0
32 1 0
33 1 0
34 1 0
35 1 0
36 1 0
37 1 0
38 1 0
39 1 0
40 1 0
41 1 0
42 1 0
43 1 0
44 1 0
45 1 0
46 1 0
47 1 0
48 1 0
49 1 0
50 1 0
0.5 1.5 0
1.5 1.5 0
2.5 1.5 0
3.5 1.5 0
4.5 1.5 0
5.5 1.5 0
6.5 1.5 0
7.5 1.5 0
8.5 1.5 0
9.5 1.5 0
10.5 1.5 0
11.5 1.5 0
12.5 1.5 0
13.5 1.5 0
14.5 1.5 0
15.5 1.5 0
16.5 1.5 0
17.5 1.5 0
18.5 1.5 0
19.5 1.5 0
20.5 1.5 0
21.5 1.5 0
22.5 1.5 0
23.5 1.5 0
24.5 1.5 0
25.5 1.5 0
26.5 1.5 0
27.5 1.5 0
28.5 1.5 0
29.5 1.5 0
30.5 1.5 0
31.5 1.5 0
32.5 1.5 0
33.5 1.5 0
34.5 1.5 0
35.5 1.5 0
36.5 1.5 0
37.5 1.5 0
38.5 1.5 0
39.5 1.5 0
40.5 1.5 0
41.5 1.5 0
42.5 1.5 0
43.5 1.5 0
44.5 1.5 0
45.5 1.5 0
46.5 1.5 0
47.5 1.5 0
48.5 1.5 0
49.5 1.5 0
0 2 0
1 2 0
2 2 0
3 2 0
4 2 0
5 2 0
6 2 0
7 2 0
8 2 0
9 2 0
10 2 0
11 2 0
12 2 0
13 2 0
14 2 0
15 2 0
16 2 0
17 2 0
18 2 0
19 2 0
20 2 0
21 2 0
22 2 0
23 2 0
24 2 0
25 2 0
26 2 0
27 2 0
28 2 0
29 2 0
30 2 0
31 2 0
32 2 0
33 2 0
34 2 0
35 2 0
36 2 0
37 2 0
38 2 0
39 2 0
40 2 0
41 2 0
42 2 0
43 2 0
44 2 0
45 2 0
46 2 0
47 2 0
48 2 0
49 2 0
50 2 0
0.5 2.5 0
1.5 2.5 0
2.5 2.5 0
3.5 2.5 0
4.5 2.5 0
5.5 2.5 0
6.5 2.5 0
7.5 2.5 0
8.5 2.5 0
9.5 2.5 0
10.5 2.5 0
11.5 2.5 0
12.5 2.5 0
13.5 2.5 0
14.5 2.5 0
15.5 2.5 0
16.5 2.5 0
17.5 2.5 0
18.5 2.5 0
19.5 2.5 0
20.5 2.5 0
21.5 2.5 0
22.5 2.5 0
23.5 2.5 0
24.5 2.5 0
25.5 2.5 0
26.5 2.5 0
27.5 2.5 0
28.5 2.5 0
29.5 2.5 0
30.5 2.5 0
31.5 2.5 0
32.5 2.5 0
33.5 2.5 0
34.5 2.5 0
35.5 2.5 0
36.5 2.5 0
37.5 2.5 0
38.5 2.5 0
39.5 2.5 0
40.5 2.5 0
41.5 2.5 0
42.5 2.5 0
43.5 2.5 0
44.5 2.5 0
45.5 2.5 0
46.5 2.5 0
47.5 2.5 0
48.5 2.5 0
49.5 2.5 0
0 3 0
1 3 0
2 3 0
3 3 0
4 3 0
5 3 0
6 3 0
7 3 0
8 3 0
9 3 0
10 3 0
11 3 0
12 3 0
13 3 0
14 3 0
15 3 0
16 3 0
17 3 0
18 3 0
19 3 0
20 3 0
21 3 0
22 3 0
23 3 0
24 3 0
25 3 0
26 3 0
27 3 0
28 3 0
29 3 0
30 3 0
31 3 0
32 3 0
33 3 0
34 3 0
35 3 0
36 3 0
37 3 0
38 3 0
39 3 0
40 3 0
41 3 0
42 3 0
43 3 0
44 3 0
45 3 0
46 3 0
47 3 0
48 3 0
49 3 0
50 3 0
0.5 3.5 0
1.5 3.5 0
2.5 3.5 0
3.5 3.5 0
4.5 3.5 0
5.5 3.5 0
6.5 3.5 0
7.5 3.5 0
8.5 3.5 0
9.5 3.5 0
10.5 3.5 0
11.5 3.5 0
12.5 3.5 0
13.5 3.5 0
14.5 3.5 0
15.5 3.5 0
16.5 3.5 0
17.5 3.5 0
18.5 3.5 0
19.5 3.5 0
20.5 3.5 0
21.5 3.5 0
22.5 3.5 0
23.5 3.5 0
24.5 3.5 0
25.5 3.5 0
26.5 3.5 0
27.5 3.5 0
28.5 3.5 0
29.5 3.5 0
30.5 3.5 0
31.5 3.5 0
32.5 3.5 0
33.5 3.5 0
34.5 3.5 0
35.5 3.5 0
36.5 3.5 0
37.5 3.5 0
38.5 3.5 0
39.5 3.5 0
40.5 3.5 0
41.5 3.5 0
42.5 3.5 0
43.5 3.5 0
44.5 3.5 0
45.5 3.5 0
46.5 3.5 0
47.5 3.5 0
48.5 3.5 0
49.5 3.5 0
0 4 0
1 4 0
2 4 0
3 4 0
4 4 0
5 4 0
6 4 0
7 4 0
8 4 0
9 4 0
10 4 0
11 4 0
12 4 0
13 4 0
14 4 0
15 4 0
16 4 0
17 4 0
18 4 0
19 4 0
20 4 0
21 4 0
22 4 0
23 4 0
24 4 0
25 4 0
26 4 0
27 4 0
28 4 0
29 4 0
30 4 0
31 4 0
32 4 0
33 4 0
34 4 0
35 4 0
36 4 0
37 4 0
38 4 0
39 4 0
40 4 0
41 4 0
42 4 0
43 4 0
44 4 0
45 4 0
46 4 0
47 4 0
48 4 0
49 4 0
50 4 0
0.5 4.5 0
1.5 4.5 0
2.5 4.5 0
3.5 4.5 0
4.5 4.5 0
5.5 4.5 0
6.5 4.5 0
7.5 4.5 0
8.5 4.5 0
9.5 4.5 0
10.5 4.5 0
11.5 4.5 0
12.5 4.5 0
13.5 4.5 0
14.5 4.5 0
15.5 4.5 0
16.5 4.5 0
17.5 4.5 0
18.5 4.5 0
19.5 4.5 0
20.5 4.5 0
21.5 4.5 0
22.5 4.5 0
23.5 4.5 0
24.5 4.5 0
25.5 4.5 0
26.5 4.5 0
27.5 4.5 0
28.5 4.5 0
29.5 4.5 0
30.5 4.5 0
31.5 4.5 0
32.5 4.5 0
33.5 4.5 0
34.5 4.5 0
35.5 4.5 0
36.5 4.5 0
37.5 4.5 0
38.5 4.5 0
39.5 4.5 0
40.5 4.5 0
41.5 4.5 0
42.5 4.5 0
43.5 4.5 0
44.5 4.5 0
45.5 4.5 0
46.5 4.5 0
47.5 4.5 0
48.5 4.5 0
49.5 4.5 0
0 5 0
1 5 0
2 5 0
3 5 0
4 5 0
5 5 0
6 5 0
7 5 0
8 5 0
9 5 0
10 5 0
11 5 0
12 5 0
13 5 0
14 5 0
15 5 0
16 5 0
17 5 0
18 5 0
19 5 0
20 5 0
21 5 0
22 5 0
23 5 0
24 5 0
25 5 0
26 5 0
27 5 0
28 5 0
29 5 0
30 5 0
31 5 0
32 5 0
33 5 0
34 5 0
35 5 0
36 5 0
37 5 0
38 5 0
39 5 0
40 5 0
41 5 0
42 5 0
43 5 0
44 5 0
45 5 0
46 5 0
47 5 0
48 5 0
49 5 0
50 5 0
0.5 5.5 0
1.5 5.5 0
2.5 5.5 0
3.5 5.5 0
4.5 5.5 0
5.5 5.5 0
6.5 5.5 0
7.5 5.5 0
8.5 5.5 0
9.5 5.5 0
10.5 5.5 0
11.5 5.5 0
12.5 5.5 0
13.5 5.5 0
14.5 5.5 0
15.5 5.5 0
16.5 5.5 0
17.5 5.5 0
18.5 5.5 0
19.5 5.5 0
20.5 5.5 0
21.5 5.5 0
22.5 5.5 0
23.5 5.5 0
24.5 5.5 0
25.5 5.5 0
26.5 5.5 0
27.5 5.5 0
28.5 5.5 0
29.5 5.5 0
30.5 5.5 0
31.5 5.5 0
32.5 5.5 0
33.5 5.5 0
34.5 5.5 0
35.5 5.5 0
36.5 5.5 0
37.5 5.5 0
38.5 5.5 0
39.5 5.5 0
40.5 5.5 0
41.5 5.5 0
42.5 5.5 0
43.5 5.5 0
44.5 5.5 0
45.5 5.5 0
46.5 5.5 0
47.5 5.5 0
48.5 5.5 0
49.5 5.5 0
0 6 0
1 6 0
2 6 0
3 6 0
4 6 0
5 6 0
6 6 0
7 6 0
8 6 0
9 6 0
10 6 0
11 6 0
12 6 0
13 6 0
14 6 0
15 6 0
16 6 0
17 6 0
18 6 0
19 6 0
20 6 0
21 6 0
22 6 0
23 6 0
24 6 0
25 6 0
26 6 0
27 6 0
28 6 0
29 6 0
30 6 0
31 6 0
32 6 0
33 6 0
34 6 0
35 6 0
36 6 0
37 6 0
38 6 0
39 6 0
40 6 0
41 6 0
42 6 0
43 6 0
44 6 0
45 6 0
46 6 0
47 6 0
48 6 0
49 6 0
50 6 0
0.5 6.5 0
1.5 6.5 0
2.5 6.5 0
3.5 6.5 0
4.5 6.5 0
5.5 6.5 0
6.5 6.5 0
7.5 6.5 0
8.5 6.5 0
9.5 6.5 0
10.5 6.5 0
11.5 6.5 0
12.5 6.5 0
13.5 6.5 0
14.5 6.5 0
15.5 6.5 0
16.5 6.5 0
17.5 6.5 0
18.5 6.5 0
19.5 6.5 0
20.5 6.5 0
21.5 6.5 0
22.5 6.5 0
23.5 6.5 0
24.5 6.5 0
25.5 6.5 0
26.5 6.5 0
27.5 6.5 0
28.5 6.5 0
29.5 6.5 0
30.5 6.5 0
31.5 6.5 0
32.5 6.5 0
33.5 6.5 0
34.5 6.5 0
35.5 6.5 0
36.5 6.5 0
37.5 6.5 0
38.5 6.5 0
39.5 6.5 0
40.5 6.5 0
41.5 6.5 0
42.5 6.5 0
43.5 6.5 0
44.5 6.5 0
45.5 6.5 0
46.5 6.5 0
47.5 6.5 0
48.5 6.5 0
49.5 6.5 0
0 7 0
1 7 0
2 7 0
3 7 0
4 7 0
5 7 0
6 7 0
7 7 0
8 7 0
9 7 0
10 7 0
11 7 0
12 7 0
13 7 0
14 7 0
15 7 0
16 7 0
17 7 0
18 7 0
19 7 0
20 7 0
21 7 0
22 7 0
23 7 0
24 7 0
25 7 0
26 7 0
27 7 0
28 7 0
29 7 0
30 7 0
31 7 0
32 7 0
33 7 0
34 7 0
35 7 0
36 7 0
37 7 0
38 7 0
39 7 0
40 7 0
41 7 0
42 7 0
43 7 0
44 7 0
45 7 0
46 7 0
47 7 0
48 7 0
49 7 0
50 7 0
0.5 7.5 0
1.5 7.5 0
2.5 7.5 0
3.5 7.5 0
4.5 7.5 0
5.5 7.5 0
6.5 7.5 0
7.5 7.5 0
8.5 7.5 0
9.5 7.5 0
10.5 7.5 0
11.5 7.5 0
12.5 7.5 0
13.5 7.5 0
14.5 7.5 0
15.5 7.5 0
16.5 7.5 0
17.5 7.5 0
18.5 7.5 0
19.5 7.5 0
20.5 7.5 0
21.5 7.5 0
22.5 7.5 0
23.5 7.5 0
24.5 7.5 0
25.5 7.5 0
26.5 7.5 0
27.5 7.5 0
28.5 7.5 0
29.5 7.5 0
30.5 7.5 0
31.5 7.5 0
32.5 7.5 0
33.5 7.5 0
34.5 7.5 0
35.5 7.5 0
36.5 7.5 0
37.5 7.5 0
38.5 7.5 0
39.5 7.5 0
40.5 7.5 0
41.5 7.5 0
42.5 7.5 0
43.5 7.5 0
44.5 7.5 0
45.5 7.5 0
46.5 7.5 0
47.5 7.5 0
48.5 7.5 0
49.5 7.5 0
0 8 0
1 8 0
2 8 0
3 8 0
4 8 0
5 8 0
6 8 0
7 8 0
8 8 0
9 8 0
10 8 0
11 8 0
12 8 0
13 8 0
14 8 0
15 8 0
16 8 0
17 8 0
18 8 0
19 8 0
20 8 0
21 8 0
22 8 0
23 8 0
24 8 0
25 8 0
26 8 0
27 8 0
28 8 0
29 8 0
30 8 0
31 8 0
32 8 0
33 8 0
34 8 0
35 8 0
36 8 0
37 8 0
38 8 0
39 8 0
40 8 0
41 8 0
42 8 0
43 8 0
44 8 0
45 8 0
46 8 0
47 8 0
48 8 0
49 8 0
50 8 0
0.5 8.5 0
1.5 8.5 0
2.5 8.5 0
3.5 8.5 0
4.5 8.5 0
5.5 8.5 0
6.5 8.5 0
7.5 8.5 0
8.5 8.5 0
9.5 8.5 0
10.5 8.5 0
11.5 8.5 0
12.5 8.5 0
13.5 8.5 0
14.5 8.5 0
15.5 8.5 0
16.5 8.5 0
17.5 8.5 0
18.5 8.5 0
19.5 8.5 0
20.5 8.5 0
21.5 8.5 0
22.5 8.5 0
23.5 8.5 0
24.5 8.5 0
25.5 8.5 0
26.5 8.5 0
27.5 8.5 0
28.5 8.5 0
29.5 8.5 0
30.5 8.5 0
31.5 8.5 0
32.5 8.5 0
33.5 8.5 0
34.5 8.5 0
35.5 8.5 0
36.5 8.5 0
37.5 8.5 0
38.5 8.5 0
39.5 8.5 0
40.5 8.5 0
41.5 8.5 0
42.5 8.5 0
43.5 8.5 0
44.5 8.5 0
45.5 8.5 0
46.5 8.5 0
47.5 8.5 0
48.5 8.5 0
49.5 8.5 0
0 9 0
1 9 0
2 9 0
3 9 0
4 9 0
5 9 0
6 9 0
7 9 0
8 9 0
9 9 0
10 9 0
11 9 0
12 9 0
13 9 0
14 9 0
15 9 0
16 9 0
17 9 0
18 9 0
19 9 0
20 9 0
21 9 0
22 9 0
23 9 0
24 9 0
25 9 0
26 9 0
27 9 0
28 9 0
29 9 0
30 9 0
31 9 0
32 9 0
33 9 0
34 9 0
35 9 0
36 9 0
37 9 0
38 9 0
39 9 0
40 9 0
41 9 0
42 9 0
43 9 0
44 9 0
45 9 0
46 9 0
47 9 0
48 9 0
49 9 0
50 9 0
0.5 9.5 0
1.5 9.5 0
2.5 9.5 0
3.5 9.5 0
4.5 9.5 0
5.5 9.5 0
6.5 9.5 0
7.5 9.5 0
8.5 9.5 0
9.5 9.5 0
10.5 9.5 0
11.5 9.5 0
12.5 9.5 0
13.5 9.5 0
14.5 9.5 0
15.5 9.5 0
16.5 9.5 0
17.5 9.5 0
18.5 9.5 0
19.5 9.5 0
20.5 9.5 0
21.5 9.5 0
22.5 9.5 0
23.5 9.5 0
24.5 9.5 0
25.5 9.5 0
26.5 9.5 0
27.5 9.5 0
28.5 9.5 0
29.5 9.5 0
30.5 9.5 0
31.5 9.5 0
32.5 9.5 0
33.5 9.5 0
34.5 9.5 0
35.5 9.5 0
36.5 9.5 0
37.5 9.5 0
38.5 9.5 0
39.5 9.5 0
40.5 9.5 0
41.5 9.5 0
42.5 9.5 0
43.5 9.5 0
44.5 9.5 0
45.5 9.5 0
46.5 9.5 0
47.5 9.5 0
48.5 9.5 0
49.5 9.5 0
0 10 0
1 10 0
2 10 0
3 10 0
4 10 0
5 10 0
6 10 0
7 10 0
8 10 0
9 10 0
10 10 0
11 10 0
12 10 0
13 10 0
14 10 0
15 10 0
16 10 0
17 10 0
18 10 0
19 10 0
20 10 0
21 10 0
22 10 0
23 10 0
24 10 0
25 10 0
26 10 0
27 10 0
28 10 0
29 10 0
30 10 0
31 10 0
32 10 0
33 10 0
34 10 0
35 10 0
36 10 0
37 10 0
38 10 0
39 10 0
40 10 0
41 10 0
42 10 0
43 10 0
44 10 0
45 10 0
46 10 0
47 10 0
48 10 0
49 10 0
50 10 0
0.5 10.5 0
1.5 10.5 0
2.5 10.5 0
3.5 10.5 0
4.5 10.5 0
5.5 10.5 0
6.5 10.5 0
7.5 10.5 0
8.5 10.5 0
9.5 10.5 0
10.5 10.5 0
11.5 10.5 0
12.5 10.5 0
13.5 10.5 0
14.5 10.5 0
15.5 10.5 0
16.5 10.5 0
17.5 10.5 0
18.5 10.5 0
19.5 10.5 0
20.5 10.5 0
21.5 10.5 0
22.5 10.5 0
23.5 10.5 0
24.5 10.5 0
25.5 10.5 0
26.5 10.5 0
27.5 10.5 0
28.5 10.5 0
29.5 10.5 0
30.5 10.5 0
31.5 10.5 0
32.5 10.5 0
33.5 10.5 0
34.5 10.5 0
35.5 10.5 0
36.5 10.5 0
37.5 10.5 0
38.5 10.5 0
39.5 10.5 0
40.5 10.5 0
41.5 10.5 0
42.5 10.5 0
43.5 10.5 0
44.5 10.5 0
45.5 10.5 0
46.5 10.5 0
47.5 10.5 0
48.5 10.5 0
49.5 10.5 0
0 11 0
1 11 0
2 11 0
3 11 0
[...]
POINT_DATA 5101
VECTORS velocity float
0.180401 0.180401 0.966908
0.154301 0.0756424 0.985124
0.0332699 -0.0789567 0.996323
-0.0033356 -0.207477 0.978234
0.0348128 -0.360991 0.931919
0.109042 -0.545113 0.831241
0.172365 -0.721209 0.670931
0.199444 -0.851731 0.484537
0.193193 -0.931683 0.307642
0.165511 -0.973958 0.154959
0.125356 -0.991743 0.0270387
0.0772911 -0.993772 -0.0802745
0.0227926 -0.984894 -0.171651
-0.0386165 -0.967225 -0.250968
-0.108574 -0.940913 -0.320771
-0.188989 -0.904726 -0.381778
-0.280761 -0.856815 -0.432483
-0.382317 -0.795942 -0.469372
-0.488809 -0.722935 -0.488294
-0.593018 -0.641464 -0.486676
-0.687808 -0.557242 -0.465189
-0.768463 -0.476029 -0.427623
-0.833423 -0.401919 -0.379297
-0.883546 -0.336842 -0.325397
-0.920923 -0.280978 -0.270097
-0.947989 -0.233416 -0.216412
-0.96705 -0.19265 -0.166436
-0.980097 -0.156881 -0.121647
-0.988764 -0.124209 -0.0831699
-0.994329 -0.0928006 -0.0519376
-0.997719 -0.0610705 -0.0287525
-0.99951 -0.0278566 -0.0142434
-0.999934 0.00745039 -0.00875288
-0.998919 0.0448615 -0.0122027
-0.99619 0.0838435 -0.0239967
-0.991417 0.123459 -0.0430097
-0.984375 0.162561 -0.0676779
-0.975066 0.199994 -0.0961706
-0.96377 0.234777 -0.126595
-0.951006 0.266232 -0.157186
-0.937424 0.294055 -0.186463
-0.92365 0.318361 -0.213345
-0.910115 0.339719 -0.237239
-0.896842 0.359224 -0.258131
-0.883223 0.378605 -0.276722
-0.867706 0.400285 -0.294716
-0.847402 0.427149 -0.315362
-0.817739 0.461496 -0.343983
-0.772149 0.503223 -0.388011
-0.700179 0.548086 -0.45755
-0.584792 0.584792 -0.562172
0.0601005 0.0601005 0.996381
-0.017571 -0.104595 0.99436
-0.00822672 -0.236464 0.971605
0.0676289 -0.381269 0.921987
0.177084 -0.546302 0.818655
0.273016 -0.705023 0.654526
0.323728 -0.827566 0.458623
0.327977 -0.906539 0.265739
0.298029 -0.949911 0.094058
0.245412 -0.968058 -0.0513497
0.177957 -0.96912 -0.170698
0.100813 -0.958762 -0.265728
0.0174915 -0.940732 -0.338701
-0.0697137 -0.917217 -0.392242
-0.159623 -0.88901 -0.429164
-0.251967 -0.855669 -0.452044
-0.346835 -0.815847 -0.462709
-0.443783 -0.767908 -0.461925
-0.540951 -0.710807 -0.449583
-0.634787 -0.645013 -0.425444
-0.720807 -0.572937 -0.390102
-0.79508 -0.498456 -0.345527
-0.855485 -0.425711 -0.294814
-0.902001 -0.357923 -0.241423
-0.936151 -0.296821 -0.188462
-0.960189 -0.242675 -0.138367
-0.976462 -0.194653 -0.0929075
-0.987057 -0.151234 -0.0533631
-0.99365 -0.110596 -0.0207064
-0.997471 -0.0709432 0.00428074
-0.999305 -0.0307921 0.0209861
-0.99952 0.0108139 0.0290344
-0.998127 0.0541902 0.0284019
-0.994895 0.0990134 0.0195217
-0.989509 0.144434 0.00332314
-0.981744 0.189274 -0.0188215
-0.971602 0.232257 -0.0452348
-0.959375 0.272226 -0.0741164
-0.945611 0.308319 -0.103724
-0.93102 0.340056 -0.132527
-0.916314 0.367398 -0.159334
-0.902034 0.390773 -0.18339
-0.888346 0.411135 -0.204472
-0.874826 0.430054 -0.223007
-0.860192 0.449807 -0.240297
-0.841983 0.473265 -0.259006
-0.81625 0.503161 -0.283841
-0.777425 0.540494 -0.321678
-0.71759 0.58303 -0.380973
-0.625694 0.625694 -0.465847
0.0756424 0.154301 0.985124
-0.0751199 -0.0751199 0.994341
-0.0516112 -0.19459 0.979526
0.0409223 -0.32438 0.945041
0.173613 -0.474346 0.863049
0.302131 -0.627784 0.717359
0.386567 -0.757136 0.526603
0.416397 -0.848945 0.325431
0.401149 -0.905632 0.137512
0.353461 -0.935058 -0.0270374
0.283225 -0.944772 -0.164892
0.197802 -0.940801 -0.275261
0.103057 -0.927782 -0.358607
0.00376131 -0.909113 -0.416532
-0.0965366 -0.886915 -0.451732
-0.195721 -0.861982 -0.467633
-0.293037 -0.833854 -0.467778
-0.388595 -0.801109 -0.455212
-0.482555 -0.761852 -0.432113
-0.574232 -0.714423 -0.399821
-0.661582 -0.658197 -0.359285
-0.741463 -0.594194 -0.311713
-0.810669 -0.525092 -0.259024
-0.867125 -0.454484 -0.203809
-0.910508 -0.385763 -0.148871
-0.942044 -0.321245 -0.0967162
-0.963853 -0.261837 -0.0492897
-0.978267 -0.207194 -0.00797274
-0.987388 -0.156122 0.0262732
-0.992855 -0.107032 0.0527566
-0.995768 -0.0583705 0.0709788
-0.996702 -0.00895775 0.0806497
-0.995774 0.041793 0.0817723
-0.992783 0.093791 0.0747402
-0.987392 0.146321 0.0603907
-0.979343 0.198213 0.0399754
-0.968622 0.248081 0.0150499
-0.955542 0.294582 -0.0126839
-0.940721 0.336627 -0.0415417
-0.924976 0.373522 -0.0700011
-0.90916 0.405035 -0.0968279
-0.893973 0.431423 -0.121188
-0.879757 0.453488 -0.142744
-0.866273 0.472656 -0.161764
-0.852465 0.491079 -0.17929
-0.836191 0.511635 -0.197519
-0.81395 0.537459 -0.220506
-0.780764 0.570595 -0.254616
-0.730079 0.610364 -0.307312
-0.653541 0.653541 -0.381797
-0.548086 0.700179 -0.45755
-0.104595 -0.017571 0.99436
-0.119841 -0.119841 0.985533
-0.0291248 -0.226526 0.97357
0.115999 -0.360138 0.925659
0.277202 -0.510911 0.813713
0.404323 -0.652881 0.640523
0.471475 -0.764726 0.43921
0.482591 -0.842139 0.240641
0.451398 -0.890267 0.0605314
0.389994 -0.91591 -0.0949377
0.307465 -0.924988 -0.223298
0.211085 -0.922346 -0.323607
0.107061 -0.911897 -0.396209
0.000477516 -0.896586 -0.442868
-0.105079 -0.878208 -0.466594
-0.207729 -0.857281 -0.471081
-0.307092 -0.833118 -0.46001
-0.403653 -0.804087 -0.436472
-0.497851 -0.768094 -0.402711
-0.589178 -0.72325 -0.360248
-0.675665 -0.66869 -0.310371
-0.754182 -0.605247 -0.254726
-0.821529 -0.535545 -0.195659
-0.875712 -0.463272 -0.136044
-0.916596 -0.391981 -0.0787582
-0.945661 -0.324099 -0.0261861
-0.965255 -0.260546 0.0199745
-0.977851 -0.200924 0.0586308
-0.985559 -0.14399 0.0891066
-0.989899 -0.0882077 0.110992
-0.991747 -0.0322159 0.124096
-0.9914 0.0248335 0.128487
-0.988724 0.0830978 0.124579
-0.983371 0.142026 0.113183
-0.975031 0.200487 0.0954911
-0.963651 0.257001 0.0729833
-0.949551 0.310028 0.0472826
-0.933421 0.358225 0.020011
-0.916208 0.400636 -0.00734192
-0.89894 0.436785 -0.0335389
-0.882523 0.466715 -0.0577095
-0.867512 0.491029 -0.0794539
-0.853892 0.510959 -0.0989361
-0.840844 0.52848 -0.117006
-0.826513 0.546377 -0.135459
-0.807776 0.568032 -0.157598
-0.780113 0.596431 -0.188929
-0.737697 0.632384 -0.23642
-0.673722 0.673722 -0.303641
-0.58303 0.71759 -0.380973
-0.0789567 0.0332699 0.996323
-0.19459 -0.0516112 0.979526
-0.121765 -0.121765 0.985062
0.0242416 -0.227541 0.973467
0.211356 -0.365443 0.906521
0.386005 -0.514717 0.76555
0.501639 -0.647237 0.573971
0.54966 -0.749011 0.369941
0.543392 -0.820552 0.177257
0.497794 -0.867276 0.00583893
0.424135 -0.89466 -0.140332
0.331044 -0.907314 -0.259213
0.225874 -0.909145 -0.34991
0.115012 -0.90346 -0.412956
0.00347919 -0.892805 -0.450431
-0.105525 -0.878689 -0.465587
-0.210686 -0.861412 -0.462149
-0.312157 -0.840097 -0.443616
-0.410757 -0.812939 -0.412807
-0.506982 -0.777672 -0.371747
-0.60009 -0.732288 -0.32194
-0.687683 -0.675948 -0.264927
-0.766208 -0.609734 -0.202857
-0.832303 -0.536699 -0.13866
-0.884199 -0.460943 -0.0756492
-0.922257 -0.386211 -0.0168465
-0.948484 -0.31483 0.0354929
-0.9656 -0.247435 0.0799498
-0.976215 -0.183325 0.115744
-0.982361 -0.121086 0.142498
-0.985323 -0.0592176 0.160098
-0.985664 0.00339047 0.168685
-0.983374 0.0671721 0.16871
-0.978118 0.131787 0.160987
-0.969531 0.196198 0.146682
-0.957493 0.258883 0.127226
-0.942303 0.318139 0.104181
-0.9247 0.372385 0.0791124
-0.905764 0.420395 0.0534657
-0.88672 0.46143 0.0284609
-0.868712 0.495293 0.00497562
-0.85256 0.522366 -0.0165621
-0.838517 0.543668 -0.0362611
-0.826028 0.560954 -0.0548518
-0.813518 0.576833 -0.0738389
-0.798192 0.594724 -0.0958795
-0.775904 0.618252 -0.125453
-0.741254 0.649639 -0.168856
-0.688028 0.688028 -0.230727
-0.610364 0.730079 -0.307312
-0.503223 0.772149 -0.388011
-0.236464 -0.00822672 0.971605
-0.226526 -0.0291248 0.97357
-0.0939092 -0.0939092 0.991142
0.104487 -0.201899 0.973817
0.323152 -0.343649 0.881747
0.497281 -0.490878 0.715367
0.59505 -0.617701 0.514161
0.623957 -0.71602 0.31304
0.601913 -0.788206 0.128188
0.543299 -0.838836 -0.0343471
0.458451 -0.871987 -0.17164
0.355766 -0.891096 -0.281742
0.242771 -0.899275 -0.363822
0.125946 -0.899371 -0.418652
0.0100669 -0.893685 -0.448582
-0.102201 -0.883598 -0.456957
-0.21016 -0.869315 -0.447352
-0.314438 -0.849851 -0.422945
-0.416057 -0.823251 -0.386206
-0.51537 -0.787091 -0.33894
-0.611154 -0.739308 -0.282692
-0.700338 -0.679265 -0.219375
-0.778837 -0.608585 -0.151781
-0.843237 -0.531017 -0.0835025
-0.892253 -0.451168 -0.01825
-0.926993 -0.372838 0.0409408
-0.950108 -0.298021 0.0920783
-0.964649 -0.226867 0.134103
-0.97324 -0.158289 0.166578
-0.977691 -0.0907461 0.189434
-0.978937 -0.0228928 0.202876
-0.977174 0.0459921 0.207402
-0.972129 0.115813 0.203846
-0.963397 0.185673 0.193369
-0.950783 0.254064 0.177377
-0.934535 0.319174 0.157392
-0.915414 0.379225 0.134931
-0.894607 0.432744 0.111402
-0.873536 0.478738 0.0880037
-0.853606 0.516771 0.0656113
-0.835938 0.547003 0.0446635
-0.821098 0.570237 0.025077
-0.808835 0.588003 0.00618571
-0.797867 0.602687 -0.0133345
-0.785694 0.617586 -0.0356724
-0.768492 0.636613 -0.0643727
-0.74116 0.663105 -0.104756
-0.697753 0.697753 -0.162113
-0.632384 0.737697 -0.23642
-0.540494 0.777425 -0.321678
-0.207477 -0.0033356 0.978234
-0.32438 0.0409223 0.945041
-0.227541 0.0242416 0.973467
-0.0382413 -0.0382413 0.998537
0.207776 -0.149925 0.966619
0.442718 -0.295743 0.846485
0.604051 -0.442631 0.662722
0.681461 -0.56877 0.460555
0.693166 -0.669676 0.266561
0.657642 -0.747854 0.0906708
0.587708 -0.8066 -0.0632074
0.492838 -0.848585 -0.19239
0.381401 -0.876155 -0.294764
0.261188 -0.891771 -0.369495
0.138744 -0.898008 -0.41753
0.0185457 -0.89714 -0.441356
-0.097287 -0.890602 -0.444255
-0.208602 -0.878628 -0.429532
-0.316395 -0.860171 -0.399999
-0.421749 -0.833125 -0.357813
-0.524708 -0.794901 -0.304653
-0.623383 -0.743444 -0.24225
-0.713915 -0.678506 -0.173074
-0.791746 -0.602495 -0.100689
-0.853662 -0.52 -0.0293453
-0.899166 -0.436039 0.0370081
-0.930269 -0.354224 0.095521
-0.950225 -0.275978 0.1446
-0.962259 -0.200875 0.183595
-0.968824 -0.127517 0.212415
-0.971357 -0.0543996 0.231313
-0.97037 0.0194707 0.240837
-0.965723 0.0942597 0.241854
-0.957014 0.169247 0.235542
-0.943979 0.242981 0.223303
-0.926801 0.31359 0.206642
-0.906235 0.379147 0.187044
-0.883547 0.437978 0.165891
-0.860329 0.488866 0.144371
-0.838247 0.531153 0.123361
-0.818741 0.564792 0.103311
-0.802723 0.590384 0.0841529
-0.790288 0.609251 0.0652518
-0.780471 0.623543 0.0453817
-0.771066 0.636353 0.0226513
-0.758531 0.651612 -0.00577298
-0.73802 0.673332 -0.0441507
-0.703726 0.703726 -0.0976678
-0.649639 0.741254 -0.168856
-0.570595 0.780764 -0.254616
-0.461496 0.817739 -0.343983
-0.381269 0.0676289 0.921987
-0.360138 0.115999 0.925659
-0.201899 0.104487 0.973817
0.0434352 0.0434352 0.998112
0.324602 -0.0743927 0.942921
0.557657 -0.225756 0.798782
0.698819 -0.375364 0.608896
0.757346 -0.505608 0.413264
0.755359 -0.613887 0.229292
0.709323 -0.702075 0.0628609
0.63016 -0.772028 -0.0828932
0.526666 -0.824991 -0.204968
0.407381 -0.862274 -0.300873
0.280468 -0.885828 -0.369657
0.152576 -0.898178 -0.412306
0.0279102 -0.901784 -0.431286
-0.091878 -0.898294 -0.429682
-0.207085 -0.888048 -0.41047
-0.318958 -0.869942 -0.376122
-0.428522 -0.841676 -0.328558
-0.535359 -0.800485 -0.269471
-0.636761 -0.74441 -0.20097
-0.728036 -0.673809 -0.126275
-0.804331 -0.59209 -0.0498139
-0.862978 -0.504689 0.023613
-0.904527 -0.416802 0.0900442
-0.931913 -0.33155 0.147012
-0.948829 -0.249634 0.193405
-0.958451 -0.17011 0.228987
-0.962866 -0.0914637 0.254014
-0.963036 -0.0124767 0.269083
-0.959057 0.0672768 0.275108
-0.950589 0.147271 0.273298
-0.937334 0.22614 0.265078
-0.919414 0.301989 0.251953
-0.89756 0.372789 0.2354
-0.873089 0.436712 0.21679
-0.847734 0.492356 0.197314
-0.823395 0.538872 0.177871
-0.801828 0.57603 0.158934
-0.784311 0.604258 0.140459
-0.771311 0.62469 0.12183
-0.762207 0.639268 0.101869
-0.7551 0.65085 0.0788521
-0.746718 0.663227 0.0504208
-0.732453 0.680689 0.0132367
-0.706617 0.706617 -0.0372022
-0.663105 0.74116 -0.104756
-0.596431 0.780113 -0.188929
-0.503161 0.81625 -0.283841
-0.360991 0.0348128 0.931919
-0.474346 0.173613 0.863049
-0.365443 0.211356 0.906521
-0.149925 0.207776 0.966619
0.14436 0.14436 0.978938
0.440097 0.0166992 0.897795
0.656506 -0.141766 0.740879
0.776501 -0.296493 0.556002
0.820457 -0.433942 0.372216
0.80918 -0.552513 0.199894
0.756007 -0.653155 0.0429116
0.670005 -0.736192 -0.0954689
0.559491 -0.801377 -0.211577
0.433348 -0.84899 -0.302367
0.300238 -0.880599 -0.36661
0.167013 -0.898861 -0.405162
0.0377069 -0.906596 -0.420312
-0.0863969 -0.905771 -0.414866
-0.205943 -0.896853 -0.391462
-0.322343 -0.87863 -0.352286
-0.436447 -0.848546 -0.299138
-0.547214 -0.803651 -0.233885
-0.650968 -0.742216 -0.159234
-0.742205 -0.665459 -0.0793427
-0.816074 -0.577947 0.000480068
-0.870823 -0.485829 0.07508
-0.908212 -0.394137 0.140739
-0.931986 -0.305246 0.195519
-0.946018 -0.219128 0.238817
-0.95319 -0.13452 0.270802
-0.955077 -0.0500836 0.292097
-0.952141 0.0348417 0.303667
-0.944196 0.119928 0.306776
-0.930956 0.203911 0.30289
-0.912507 0.284893 0.29354
-0.889564 0.360774 0.280211
-0.863474 0.429613 0.264283
-0.836082 0.48987 0.24697
-0.809491 0.540542 0.229212
-0.785753 0.581246 0.21153
-0.766505 0.612262 0.193921
-0.752601 0.634576 0.175796
-0.74379 0.649953 0.156005
-0.73849 0.661035 0.132909
-0.733697 0.671404 0.104429
-0.725035 0.685355 0.0679078
-0.706969 0.706969 0.0197457
-0.673332 0.73802 -0.0441507
-0.618252 0.775904 -0.125453
-0.537459 0.81395 -0.220506
-0.427149 0.847402 -0.315362
-0.546302 0.177084 0.818655
-0.510911 0.277202 0.813713
-0.343649 0.323152 0.881747
-0.0743927 0.324602 0.942921
0.251636 0.251636 0.934537
0.540124 0.111659 0.834146
0.73322 -0.053526 0.677881
0.835701 -0.213666 0.505916
0.870402 -0.359127 0.336792
0.854282 -0.488868 0.176662
0.797379 -0.602794 0.0287407
0.707043 -0.699609 -0.103139
0.591221 -0.777474 -0.214459
0.459253 -0.835588 -0.30146
0.320439 -0.875186 -0.362447
0.181979 -0.899171 -0.397965
0.0478707 -0.910825 -0.410009
-0.080862 -0.912477 -0.401058
-0.205139 -0.904685 -0.373448
-0.326462 -0.886046 -0.329159
-0.445381 -0.853663 -0.269992
-0.560036 -0.804414 -0.198186
-0.665635 -0.737004 -0.117285
-0.75598 -0.653785 -0.0325479
-0.826616 -0.560548 0.0499213
-0.877054 -0.463875 0.124885
-0.910286 -0.368265 0.189104
-0.93062 -0.27522 0.241248
-0.941809 -0.184144 0.281223
-0.946227 -0.0937775 0.309614
-0.944868 -0.00329154 0.327436
-0.937813 0.0871708 0.336019
-0.924862 0.176443 0.336895
-0.906112 0.262629 0.331644
-0.882278 0.343575 0.321779
-0.854748 0.417261 0.308706
-0.825458 0.482046 0.293684
-0.796687 0.536811 0.277713
-0.770749 0.581052 0.26139
-0.749626 0.614935 0.244776
-0.734556 0.639333 0.227335
-0.725667 0.655871 0.207944
-0.721707 0.667018 0.185002
-0.71994 0.676144 0.156577
-0.716213 0.687408 0.120456
-0.705175 0.705175 0.0738706
-0.680689 0.732453 0.0132367
-0.636613 0.768492 -0.0643727
-0.568032 0.807776 -0.157598
-0.473265 0.841983 -0.259006
-0.545113 0.109042 0.831241
-0.627784 0.302131 0.717359
-0.514717 0.386005 0.76555
-0.295743 0.442718 0.846485
0.0166992 0.440097 0.897795
0.351007 0.351007 0.868095
0.617613 0.200082 0.760606
0.787967 0.0309432 0.614939
0.878123 -0.132913 0.459602
0.908352 -0.285239 0.305836
0.891225 -0.425288 0.157634
0.833698 -0.551922 0.0181477
0.741464 -0.662222 -0.10813
0.622057 -0.75265 -0.215783
0.485296 -0.821203 -0.30019
0.34125 -0.86872 -0.358991
0.197646 -0.898372 -0.392256
0.0585962 -0.913938 -0.4016
-0.075053 -0.9181 -0.389178
-0.20445 -0.911428 -0.357071
-0.331117 -0.892202 -0.307142
-0.455139 -0.85709 -0.241338
-0.573588 -0.802865 -0.162495
-0.68043 -0.728938 -0.0752595
-0.769019 -0.639075 0.0139146
-0.835765 -0.540212 0.0983205
-0.881703 -0.438963 0.172949
-0.910906 -0.339002 0.235217
-0.927903 -0.241016 0.284441
-0.93603 -0.144164 0.321037
-0.937014 -0.0475889 0.346034
-0.931357 0.0487071 0.360836
-0.919039 0.143637 0.367063
-0.900229 0.235292 0.366368
-0.875691 0.321462 0.360315
-0.846876 0.400066 0.350354
-0.815816 0.469397 0.337804
-0.784941 0.528252 0.323754
-0.756809 0.576042 0.308895
-0.733718 0.612847 0.293387
-0.717281 0.639458 0.27677
-0.708002 0.657408 0.257968
-0.704964 0.669037 0.235403
-0.705696 0.677538 0.207208
-0.706254 0.686891 0.171424
-0.701479 0.701479 0.125913
-0.685355 0.725035 0.0679078
-0.651612 0.758531 -0.00577298
-0.594724 0.798192 -0.0958795
-0.511635 0.836191 -0.197519
-0.400285 0.867706 -0.294716
-0.705023 0.273016 0.654526
-0.652881 0.404323 0.640523
-0.490878 0.497281 0.715367
-0.225756 0.557657 0.798782
0.111659 0.540124 0.834146
0.433569 0.433569 0.789959
0.673162 0.276383 0.685905
0.824685 0.107097 0.555361
0.907038 -0.0577965 0.417064
0.936303 -0.214669 0.277945
0.921086 -0.362973 0.140897
0.86556 -0.500723 0.00910148
0.773689 -0.62351 -0.112428
0.652381 -0.726037 -0.217417
0.511846 -0.8049 -0.300248
0.363035 -0.860381 -0.357701
0.214388 -0.895848 -0.389222
0.0702674 -0.915559 -0.395998
-0.0686031 -0.922489 -0.379878
-0.203578 -0.917102 -0.342753
-0.336114 -0.8972 -0.28646
-0.465589 -0.858923 -0.213258
-0.587694 -0.799076 -0.126858
-0.6951 -0.718142 -0.033276
-0.781112 -0.621517 0.0598417
-0.843514 -0.517028 0.145489
-0.884945 -0.410886 0.219191
-0.910249 -0.305821 0.279142
-0.923783 -0.201968 0.325322
-0.928227 -0.0986981 0.358683
-0.924694 0.00402858 0.38069
-0.913477 0.105161 0.393065
-0.894897 0.202741 0.397562
-0.869834 0.294479 0.395816
-0.83985 0.378238 0.389343
-0.807096 0.452264 0.379544
-0.774159 0.515306 0.367611
-0.743818 0.566713 0.354359
-0.718674 0.606513 0.340073
-0.700694 0.635445 0.324404
-0.690754 0.654987 0.30635
-0.68827 0.6674 0.284361
-0.691026 0.675754 0.256592
-0.695268 0.683864 0.221207
-0.696007 0.696007 0.176486
-0.687408 0.716213 0.120456
-0.663227 0.746718 0.0504208
-0.617586 0.785694 -0.0356724
-0.546377 0.826513 -0.135459
-0.449807 0.860192 -0.240297
-0.721209 0.172365 0.670931
-0.757136 0.386567 0.526603
-0.647237 0.501639 0.573971
-0.442631 0.604051 0.662722
-0.141766 0.656506 0.740879
0.200082 0.617613 0.760606
0.497616 0.497616 0.710463
0.711327 0.339544 0.615405
0.848226 0.173554 0.500391
0.925876 0.0103838 0.377686
0.956361 -0.148259 0.251778
0.945057 -0.302121 0.124861
0.893655 -0.448755 -1.74916e-05
0.804223 -0.58258 -0.117584
0.682678 -0.696562 -0.220798
0.539417 -0.78566 -0.302931
0.386334 -0.849332 -0.359696
0.232759 -0.891009 -0.389778
0.0834197 -0.915358 -0.393906
-0.0610622 -0.925553 -0.373663
-0.202232 -0.921773 -0.330813
-0.341339 -0.901142 -0.267265
-0.476702 -0.859204 -0.185803
-0.602273 -0.793046 -0.0913496
-0.709502 -0.704652 0.00846789
-0.79223 -0.60113 0.104948
-0.850049 -0.490784 0.191176
-0.887061 -0.379084 0.263474
-0.908425 -0.267929 0.320902
-0.917957 -0.157377 0.364125
-0.917616 -0.0475392 0.394614
-0.908175 0.0604851 0.414198
-0.890219 0.164621 0.424748
-0.864833 0.262455 0.427997
-0.833763 0.35178 0.425547
-0.79933 0.430804 0.418902
-0.7643 0.498248 0.409382
-0.731679 0.55343 0.397947
-0.704356 0.596348 0.385035
-0.684645 0.627721 0.370441
-0.673785 0.649008 0.353274
-0.671516 0.662434 0.332036
-0.67587 0.671002 0.304887
-0.683253 0.678415 0.270033
-0.688813 0.688813 0.225995
-0.686891 0.706254 0.171424
-0.671404 0.733697 0.104429
-0.636353 0.771066 0.0226513
-0.576833 0.813518 -0.0738389
-0.491079 0.852465 -0.17929
-0.378605 0.883223 -0.276722
-0.827566 0.323728 0.458623
-0.764726 0.471475 0.43921
-0.617701 0.59505 0.514161
-0.375364 0.698819 0.608896
-0.053526 0.73322 0.677881
0.276383 0.673162 0.685905
0.545812 0.545812 0.63575
0.737162 0.391066 0.551053
0.862718 0.230897 0.449894
0.937451 0.0718805 0.340615
0.97029 -0.0857176 0.226251
0.964163 -0.242161 0.108383
0.918594 -0.395068 -0.010337
0.833557 -0.53818 -0.124678
0.713501 -0.662876 -0.226964
0.568658 -0.762239 -0.309225
0.411858 -0.83457 -0.365877
0.253478 -0.883153 -0.394702
0.0987019 -0.91295 -0.395955
-0.0519548 -0.927175 -0.371008
-0.200198 -0.925483 -0.32156
-0.346828 -0.904077 -0.249712
-0.488601 -0.857888 -0.159049
-0.617363 -0.784674 -0.05612
-0.723662 -0.688365 0.0496649
-0.802587 -0.577664 0.148856
-0.855761 -0.460889 0.235061
-0.888363 -0.342633 0.305635
-0.905348 -0.224379 0.360554
-0.909772 -0.10675 0.401147
-0.903111 0.00894797 0.429315
-0.88636 0.120418 0.447063
-0.86093 0.225044 0.45624
-0.828851 0.320517 0.458557