# vtk DataFile Version 2.0
tmp/0.000.00-10.000.000.001.0049.vtk
ASCII
DATASET UNSTRUCTURED_GRID
POINTS 5000 float
0.25 0.25 0
1.25 0.25 0
2.25 0.25 0
3.25 0.25 0
4.25 0.25 0
5.25 0.25 0
6.25 0.25 0
7.25 0.25 0
8.25 0.25 0
9.25 0.25 0
10.25 0.25 0
11.25 0.25 0
12.25 0.25 0
13.25 0.25 0
14.25 0.25 0
15.25 0.25 0
16.25 0.25 0
17.25 0.25 0
18.25 0.25 0
19.25 0.25 0
20.25 0.25 0
21.25 0.25 0
22.25 0.25 0
23.25 0.25 0
24.25 0.25 0
25.25 0.25 0
26.25 0.25 0
27.25 0.25 0
28.25 0.25 0
29.25 0.25 0
30.25 0.25 0
31.25 0.25 0
32.25 0.25 0
33.25 0.25 0
34.25 0.25 0
35.25 0.25 0
36.25 0.25 0
37.25 0.25 0
38.25 0.25 0
39.25 0.25 0
40.25 0.25 0
41.25 0.25 0
42.25 0.25 0
43.25 0.25 0
44.25 0.25 0
45.25 0.25 0
46.25 0.25 0
47.25 0.25 0
48.25 0.25 0
49.25 0.25 0
0.75 0.75 0
1.75 0.75 0
2.75 0.75 0
3.75 0.75 0
4.75 0.75 0
5.75 0.75 0
6.75 0.75 0
7.75 0.75 0
8.75 0.75 0
9.75 0.75 0
10.75 0.75 0
11.75 0.75 0
12.75 0.75 0
13.75 0.75 0
14.75 0.75 0
15.75 0.75 0
16.75 0.75 0
17.75 0.75 0
18.75 0.75 0
19.75 0.75 0
20.75 0.75 0
21.75 0.75 0
22.75 0.75 0
23.75 0.75 0
24.75 0.75 0
25.75 0.75 0
26.75 0.75 0
27.75 0.75 0
28.75 0.75 0
29.75 0.75 0
30.75 0.75 0
31.75 0.75 0
32.75 0.75 0
33.75 0.75 0
34.75 0.75 0
35.75 0.75 0
36.75 0.75 0
37.75 0.75 0
38.75 0.75 0
39.75 0.75 0
40.75 0.75 0
41.75 0.75 0
42.75 0.75 0
43.75 0.75 0
44.75 0.75 0
45.75 0.75 0
46.75 0.75 0
47.75 0.75 0
48.75 0.75 0
49.75 0.75 0
0.25 1.25 0
1.25 1.25 0
2.25 1.25 0
3.25 1.25 0
4.25 1.25 0
5.25 1.25 0
6.25 1.25 0
7.25 1.25 0
8.25 1.25 0
9.25 1.25 0
10.25 1.25 0
11.25 1.25 0
12.25 1.25 0
13.25 1.25 0
14.25 1.25 0
15.25 1.25 0
16.25 1.25 0
17.25 1.25 0
18.25 1.25 0
19.25 1.25 0
20.25 1.25 0
21.25 1.25 0
22.25 1.25 0
23.25 1.25 0
24.25 1.25 0
25.25 1.25 0
26.25 1.25 0
27.25 1.25 0
28.25 1.25 0
29.25 1.25 0
30.25 1.25 0
31.25 1.25 0
32.25 1.25 0
33.25 1.25 0
34.25 1.25 0
35.25 1.25 0
36.25 1.25 0
37.25 1.25 0
38.25 1.25 0
39.25 1.25 0
40.25 1.25 0
41.25 1.25 0
42.25 1.25 0
43.25 1.25 0
44.25 1.25 0
45.25 1.25 0
46.25 1.25 0
47.25 1.25 0
48.25 1.25 0
49.25 1.25 0
0.75 1.75 0
1.75 1.75 0
2.75 1.75 0
3.75 1.75 0
4.75 1.75 0
5.75 1.75 0
6.75 1.75 0
7.75 1.75 0
8.75 1.75 0
9.75 1.75 0
10.75 1.75 0
11.75 1.75 0
12.75 1.75 0
13.75 1.75 0
14.75 1.75 0
15.75 1.75 0
16.75 1.75 0
17.75 1.75 0
18.75 1.75 0
19.75 1.75 0
20.75 1.75 0
21.75 1.75 0
22.75 1.75 0
23.75 1.75 0
24.75 1.75 0
25.75 1.75 0
26.75 1.75 0
27.75 1.75 0
28.75 1.75 0
29.75 1.75 0
30.75 1.75 0
31.75 1.75 0
32.75 1.75 0
33.75 1.75 0
34.75 1.75 0
35.75 1.75 0
36.75 1.75 0
37.75 1.75 0
38.75 1.75 0
39.75 1.75 0
40.75 1.75 0
41.75 1.75 0
42.75 1.75 0
43.75 1.75 0
44.75 1.75 0
45.75 1.75 0
46.75 1.75 0
47.75 1.75 0
48.75 1.75 0
49.75 1.75 0
0.25 2.25 0
1.25 2.25 0
2.25 2.25 0
3.25 2.25 0
4.25 2.25 0
5.25 2.25 0
6.25 2.25 0
7.25 2.25 0
8.25 2.25 0
9.25 2.25 0
10.25 2.25 0
11.25 2.25 0
12.25 2.25 0
13.25 2.25 0
14.25 2.25 0
15.25 2.25 0
16.25 2.25 0
17.25 2.25 0
18.25 2.25 0
19.25 2.25 0
20.25 2.25 0
21.25 2.25 0
22.25 2.25 0
23.25 2.25 0
24.25 2.25 0
25.25 2.25 0
26.25 2.25 0
27.25 2.25 0
28.25 2.25 0
29.25 2.25 0
30.25 2.25 0
31.25 2.25 0
32.25 2.25 0
33.25 2.25 0
34.25 2.25 0
35.25 2.25 0
36.25 2.25 0
37.25 2.25 0
38.25 2.25 0
39.25 2.25 0
40.25 2.25 0
41.25 2.25 0
42.25 2.25 0
43.25 2.25 0
44.25 2.25 0
45.25 2.25 0
46.25 2.25 0
47.25 2.25 0
48.25 2.25 0
49.25 2.25 0
0.75 2.75 0
1.75 2.75 0
2.75 2.75 0
3.75 2.75 0
4.75 2.75 0
5.75 2.75 0
6.75 2.75 0
7.75 2.75 0
8.75 2.75 0
9.75 2.75 0
10.75 2.75 0
11.75 2.75 0
12.75 2.75 0
13.75 2.75 0
14.75 2.75 0
15.75 2.75 0
16.75 2.75 0
17.75 2.75 0
18.75 2.75 0
19.75 2.75 0
20.75 2.75 0
21.75 2.75 0
22.75 2.75 0
23.75 2.75 0
24.75 2.75 0
25.75 2.75 0
26.75 2.75 0
27.75 2.75 0
28.75 2.75 0
29.75 2.75 0
30.75 2.75 0
31.75 2.75 0
32.75 2.75 0
33.75 2.75 0
34.75 2.75 0
35.75 2.75 0
36.75 2.75 0
37.75 2.75 0
38.75 2.75 0
39.75 2.75 0
40.75 2.75 0
41.75 2.75 0
42.75 2.75 0
43.75 2.75 0
44.75 2.75 0
45.75 2.75 0
46.75 2.75 0
47.75 2.75 0
48.75 2.75 0
49.75 2.75 0
0.25 3.25 0
1.25 3.25 0
2.25 3.25 0
3.25 3.25 0
4.25 3.25 0
5.25 3.25 0
6.25 3.25 0
7.25 3.25 0
8.25 3.25 0
9.25 3.25 0
10.25 3.25 0
11.25 3.25 0
12.25 3.25 0
13.25 3.25 0
14.25 3.25 0
15.25 3.25 0
16.25 3.25 0
17.25 3.25 0
18.25 3.25 0
19.25 3.25 0
20.25 3.25 0
21.25 3.25 0
22.25 3.25 0
23.25 3.25 0
24.25 3.25 0
25.25 3.25 0
26.25 3.25 0
27.25 3.25 0
28.25 3.25 0
29.25 3.25 0
30.25 3.25 0
31.25 3.25 0
32.25 3.25 0
33.25 3.25 0
34.25 3.25 0
35.25 3.25 0
36.25 3.25 0
37.25 3.25 0
38.25 3.25 0
39.25 3.25 0
40.25 3.25 0
41.25 3.25 0
42.25 3.25 0
43.25 3.25 0
44.25 3.25 0
45.25 3.25 0
46.25 3.25 0
47.25 3.25 0
48.25 3.25 0
49.25 3.25 0
0.75 3.75 0
1.75 3.75 0
2.75 3.75 0
3.75 3.75 0
4.75 3.75 0
5.75 3.75 0
6.75 3.75 0
7.75 3.75 0
8.75 3.75 0
9.75 3.75 0
10.75 3.75 0
11.75 3.75 0
12.75 3.75 0
13.75 3.75 0
14.75 3.75 0
15.75 3.75 0
16.75 3.75 0
17.75 3.75 0
18.75 3.75 0
19.75 3.75 0
20.75 3.75 0
21.75 3.75 0
22.75 3.75 0
23.75 3.75 0
24.75 3.75 0
25.75 3.75 0
26.75 3.75 0
27.75 3.75 0
28.75 3.75 0
29.75 3.75 0
30.75 3.75 0
31.75 3.75 0
32.75 3.75 0
33.75 3.75 0
34.75 3.75 0
35.75 3.75 0
36.75 3.75 0
37.75 3.75 0
38.75 3.75 0
39.75 3.75 0
40.75 3.75 0
41.75 3.75 0
42.75 3.75 0
43.75 3.75 0
44.75 3.75 0
45.75 3.75 0
46.75 3.75 0
47.75 3.75 0
48.75 3.75 0
49.75 3.75 0
0.25 4.25 0
1.25 4.25 0
2.25 4.25 0
3.25 4.25 0
4.25 4.25 0
5.25 4.25 0
6.25 4.25 0
7.25 4.25 0
8.25 4.25 0
9.25 4.25 0
10.25 4.25 0
11.25 4.25 0
12.25 4.25 0
13.25 4.25 0
14.25 4.25 0
15.25 4.25 0
16.25 4.25 0
17.25 4.25 0
18.25 4.25 0
19.25 4.25 0
20.25 4.25 0
21.25 4.25 0
22.25 4.25 0
23.25 4.25 0
24.25 4.25 0
25.25 4.25 0
26.25 4.25 0
27.25 4.25 0
28.25 4.25 0
29.25 4.25 0
30.25 4.25 0
31.25 4.25 0
32.25 4.25 0
33.25 4.25 0
34.25 4.25 0
35.25 4.25 0
36.25 4.25 0
37.25 4.25 0
38.25 4.25 0
39.25 4.25 0
40.25 4.25 0
41.25 4.25 0
42.25 4.25 0
43.25 4.25 0
44.25 4.25 0
45.25 4.25 0
46.25 4.25 0
47.25 4.25 0
48.25 4.25 0
49.25 4.25 0
0.75 4.75 0
1.75 4.75 0
2.75 4.75 0
3.75 4.75 0
4.75 4.75 0
5.75 4.75 0
6.75 4.75 0
7.75 4.75 0
8.75 4.75 0
9.75 4.75 0
10.75 4.75 0
11.75 4.75 0
12.75 4.75 0
13.75 4.75 0
14.75 4.75 0
15.75 4.75 0
16.75 4.75 0
17.75 4.75 0
18.75 4.75 0
19.75 4.75 0
20.75 4.75 0
21.75 4.75 0
22.75 4.75 0
23.75 4.75 0
24.75 4.75 0
25.75 4.75 0
26.75 4.75 0
27.75 4.75 0
28.75 4.75 0
29.75 4.75 0
30.75 4.75 0
31.75 4.75 0
32.75 4.75 0
33.75 4.75 0
34.75 4.75 0
35.75 4.75 0
36.75 4.75 0
37.75 4.75 0
38.75 4.75 0
39.75 4.75 0
40.75 4.75 0
41.75 4.75 0
42.75 4.75 0
43.75 4.75 0
44.75 4.75 0
45.75 4.75 0
46.75 4.75 0
47.75 4.75 0
48.75 4.75 0
49.75 4.75 0
0.25 5.25 0
1.25 5.25 0
2.25 5.25 0
3.25 5.25 0
4.25 5.25 0
5.25 5.25 0
6.25 5.25 0
7.25 5.25 0
8.25 5.25 0
9.25 5.25 0
10.25 5.25 0
11.25 5.25 0
12.25 5.25 0
13.25 5.25 0
14.25 5.25 0
15.25 5.25 0
16.25 5.25 0
17.25 5.25 0
18.25 5.25 0
19.25 5.25 0
20.25 5.25 0
21.25 5.25 0
22.25 5.25 0
23.25 5.25 0
24.25 5.25 0
25.25 5.25 0
26.25 5.25 0
27.25 5.25 0
28.25 5.25 0
29.25 5.25 0
30.25 5.25 0
31.25 5.25 0
32.25 5.25 0
33.25 5.25 0
34.25 5.25 0
35.25 5.25 0
36.25 5.25 0
37.25 5.25 0
38.25 5.25 0
39.25 5.25 0
40.25 5.25 0
41.25 5.25 0
42.25 5.25 0
43.25 5.25 0
44.25 5.25 0
45.25 5.25 0
46.25 5.25 0
47.25 5.25 0
48.25 5.25 0
49.25 5.25 0
0.75 5.75 0
1.75 5.75 0
2.75 5.75 0
3.75 5.75 0
4.75 5.75 0
5.75 5.75 0
6.75 5.75 0
7.75 5.75 0
8.75 5.75 0
9.75 5.75 0
10.75 5.75 0
11.75 5.75 0
12.75 5.75 0
13.75 5.75 0
14.75 5.75 0
15.75 5.75 0
16.75 5.75 0
17.75 5.75 0
18.75 5.75 0
19.75 5.75 0
20.75 5.75 0
21.75 5.75 0
22.75 5.75 0
23.75 5.75 0
24.75 5.75 0
25.75 5.75 0
26.75 5.75 0
27.75 5.75 0
28.75 5.75 0
29.75 5.75 0
30.75 5.75 0
31.75 5.75 0
32.75 5.75 0
33.75 5.75 0
34.75 5.75 0
35.75 5.75 0
36.75 5.75 0
37.75 5.75 0
38.75 5.75 0
39.75 5.75 0
40.75 5.75 0
41.75 5.75 0
42.75 5.75 0
43.75 5.75 0
44.75 5.75 0
45.75 5.75 0
46.75 5.75 0
47.75 5.75 0
48.75 5.75 0
49.75 5.75 0
0.25 6.25 0
1.25 6.25 0
2.25 6.25 0
3.25 6.25 0
4.25 6.25 0
5.25 6.25 0
6.25 6.25 0
7.25 6.25 0
8.25 6.25 0
9.25 6.25 0
10.25 6.25 0
11.25 6.25 0
12.25 6.25 0
13.25 6.25 0
14.25 6.25 0
15.25 6.25 0
16.25 6.25 0
17.25 6.25 0
18.25 6.25 0
19.25 6.25 0
20.25 6.25 0
21.25 6.25 0
22.25 6.25 0
23.25 6.25 0
24.25 6.25 0
25.25 6.25 0
26.25 6.25 0
27.25 6.25 0
28.25 6.25 0
29.25 6.25 0
30.25 6.25 0
31.25 6.25 0
32.25 6.25 0
33.25 6.25 0
34.25 6.25 0
35.25 6.25 0
36.25 6.25 0
37.25 6.25 0
38.25 6.25 0
39.25 6.25 0
40.25 6.25 0
41.25 6.25 0
42.25 6.25 0
43.25 6.25 0
44.25 6.25 0
45.25 6.25 0
46.25 6.25 0
47.25 6.25 0
48.25 6.25 0
49.25 6.25 0
0.75 6.75 0
1.75 6.75 0
2.75 6.75 0
3.75 6.75 0
4.75 6.75 0
5.75 6.75 0
6.75 6.75 0
7.75 6.75 0
8.75 6.75 0
9.75 6.75 0
10.75 6.75 0
11.75 6.75 0
12.75 6.75 0
13.75 6.75 0
14.75 6.75 0
15.75 6.75 0
16.75 6.75 0
17.75 6.75 0
18.75 6.75 0
19.75 6.75 0
20.75 6.75 0
21.75 6.75 0
22.75 6.75 0
23.75 6.75 0
24.75 6.75 0
25.75 6.75 0
26.75 6.75 0
27.75 6.75 0
28.75 6.75 0
29.75 6.75 0
30.75 6.75 0
31.75 6.75 0
32.75 6.75 0
33.75 6.75 0
34.75 6.75 0
35.75 6.75 0
36.75 6.75 0
37.75 6.75 0
38.75 6.75 0
39.75 6.75 0
40.75 6.75 0
41.75 6.75 0
42.75 6.75 0
43.75 6.75 0
44.75 6.75 0
45.75 6.75 0
46.75 6.75 0
47.75 6.75 0
48.75 6.75 0
49.75 6.75 0
0.25 7.25 0
1.25 7.25 0
2.25 7.25 0
3.25 7.25 0
4.25 7.25 0
5.25 7.25 0
6.25 7.25 0
7.25 7.25 0
8.25 7.25 0
9.25 7.25 0
10.25 7.25 0
11.25 7.25 0
12.25 7.25 0
13.25 7.25 0
14.25 7.25 0
15.25 7.25 0
16.25 7.25 0
17.25 7.25 0
18.25 7.25 0
19.25 7.25 0
20.25 7.25 0
21.25 7.25 0
22.25 7.25 0
23.25 7.25 0
24.25 7.25 0
25.25 7.25 0
26.25 7.25 0
27.25 7.25 0
28.25 7.25 0
29.25 7.25 0
30.25 7.25 0
31.25 7.25 0
32.25 7.25 0
33.25 7.25 0
34.25 7.25 0
35.25 7.25 0
36.25 7.25 0
37.25 7.25 0
38.25 7.25 0
39.25 7.25 0
40.25 7.25 0
41.25 7.25 0
42.25 7.25 0
43.25 7.25 0
44.25 7.25 0
45.25 7.25 0
46.25 7.25 0
47.25 7.25 0
48.25 7.25 0
49.25 7.25 0
0.75 7.75 0
1.75 7.75 0
2.75 7.75 0
3.75 7.75 0
4.75 7.75 0
5.75 7.75 0
6.75 7.75 0
7.75 7.75 0
8.75 7.75 0
9.75 7.75 0
10.75 7.75 0
11.75 7.75 0
12.75 7.75 0
13.75 7.75 0
14.75 7.75 0
15.75 7.75 0
16.75 7.75 0
17.75 7.75 0
18.75 7.75 0
19.75 7.75 0
20.75 7.75 0
21.75 7.75 0
[...]
POINT_DATA 5000
VECTORS velocity float
-0.23774 -0.23774 0.941785
-0.205619 -0.290722 0.934452
-0.135191 -0.360745 0.922814
-0.0399859 -0.468024 0.882811
0.0647009 -0.603499 0.794734
0.159856 -0.741526 0.651602
0.229519 -0.856652 0.462026
0.263638 -0.932937 0.245201
0.258234 -0.965787 0.0238792
0.214534 -0.959771 -0.18115
0.137836 -0.924941 -0.354238
0.0362338 -0.873175 -0.486058
-0.0808129 -0.815305 -0.573364
-0.2039 -0.759391 -0.61786
-0.324836 -0.710126 -0.624662
-0.437364 -0.669156 -0.600785
-0.53741 -0.635913 -0.5539
-0.622969 -0.608581 -0.491467
-0.69375 -0.58495 -0.420172
-0.750703 -0.563023 -0.345615
-0.795534 -0.541343 -0.272164
-0.83028 -0.519077 -0.202964
-0.857003 -0.495905 -0.140084
-0.877617 -0.47181 -0.0847558
-0.893805 -0.446872 -0.0376556
-0.907 -0.421129 0.000845961
-0.918382 -0.394519 0.0305023
-0.928863 -0.366884 0.0510843
-0.939072 -0.338019 0.0623451
-0.949314 -0.307735 0.0640513
-0.959541 -0.27593 0.0560718
-0.96935 -0.242646 0.0385096
-0.978035 -0.208103 0.0118484
-0.984705 -0.172712 -0.0229285
-0.988476 -0.137048 -0.0642925
-0.988679 -0.1018 -0.110234
-0.985045 -0.0676991 -0.15844
-0.977795 -0.0354191 -0.206547
-0.967606 -0.00547044 -0.252408
-0.955458 0.0219145 -0.294311
-0.942414 0.0469015 -0.331144
-0.929334 0.0701965 -0.362506
-0.916589 0.0932209 -0.388811
-0.903757 0.118304 -0.411372
-0.889276 0.148821 -0.432482
-0.869897 0.189095 -0.455546
-0.839711 0.243564 -0.485346
-0.788896 0.314078 -0.528202
-0.704788 0.395086 -0.58922
-0.581507 0.475335 -0.660232
-0.254789 -0.254789 0.932827
-0.186935 -0.311135 0.931799
-0.0844776 -0.39855 0.913248
0.0373973 -0.519036 0.853934
0.156566 -0.654651 0.739539
0.25325 -0.779842 0.572461
0.314503 -0.874944 0.368186
0.334393 -0.930728 0.14808
0.312669 -0.947519 -0.0666695
0.253297 -0.932174 -0.258637
0.163221 -0.894741 -0.415689
0.0512578 -0.845686 -0.531214
-0.0730702 -0.79392 -0.603615
-0.200681 -0.745714 -0.635325
-0.323892 -0.704409 -0.631587
-0.437005 -0.670782 -0.599232
-0.536497 -0.643786 -0.545628
-0.620858 -0.621398 -0.477912
-0.69021 -0.601353 -0.402473
-0.745822 -0.581674 -0.324663
-0.789609 -0.560965 -0.248666
-0.823734 -0.538473 -0.177511
-0.850319 -0.513946 -0.113214
-0.87131 -0.48741 -0.0570124
-0.888418 -0.458934 -0.00962981
-0.903095 -0.428496 0.0284912
-0.916509 -0.39593 0.0570192
-0.929505 -0.36097 0.0756445
-0.942544 -0.323333 0.0840696
-0.955654 -0.282825 0.0820749
-0.968408 -0.239449 0.0696467
-0.979972 -0.193477 0.04714
-0.989238 -0.145502 0.0154288
-0.995051 -0.0964241 -0.0240108
-0.996481 -0.0473971 -0.0691378
-0.993071 0.000290435 -0.117516
-0.984983 0.0453702 -0.166585
-0.972984 0.0867656 -0.213947
-0.958292 0.123747 -0.257609
-0.94231 0.156055 -0.296139
-0.926307 0.184016 -0.328776
-0.911086 0.208683 -0.35549
-0.896669 0.232008 -0.377038
-0.88199 0.25701 -0.395017
-0.864534 0.287816 -0.411998
-0.83967 0.329225 -0.431932
-0.79949 0.38487 -0.461184
-0.731923 0.452623 -0.509334
-0.624141 0.52225 -0.581122
-0.475335 0.581507 -0.660232
-0.290722 -0.205619 0.934452
-0.244711 -0.244711 0.938208
-0.143967 -0.30804 0.940417
-0.0120787 -0.407371 0.913183
0.128411 -0.534698 0.835229
0.252699 -0.667716 0.700214
0.343413 -0.783426 0.517988
0.391773 -0.867143 0.307535
0.395878 -0.913889 0.0899339
0.35851 -0.926281 -0.116077
0.28548 -0.911508 -0.296064
0.18457 -0.878633 -0.440384
0.0647225 -0.836572 -0.54402
-0.0648204 -0.792734 -0.606111
-0.195429 -0.752244 -0.629234
-0.319905 -0.717741 -0.618473
-0.433012 -0.68966 -0.580404
-0.531648 -0.666859 -0.522159
-0.614691 -0.647337 -0.450677
-0.682612 -0.628897 -0.372195
-0.736968 -0.609628 -0.291944
-0.779892 -0.588187 -0.21402
-0.813676 -0.563858 -0.141402
-0.840514 -0.536419 -0.0761037
-0.862378 -0.505893 -0.0194018
-0.880987 -0.472317 0.0279043
-0.897771 -0.435599 0.0652718
-0.913822 -0.395496 0.0922648
-0.929809 -0.351688 0.108495
-0.945898 -0.303907 0.113653
-0.961705 -0.252072 0.107626
-0.976321 -0.19641 0.090663
-0.988455 -0.137544 0.0635443
-0.996683 -0.0765304 0.0276891
-0.99978 -0.0148325 -0.0148634
-0.997049 0.045786 -0.0616182
-0.988543 0.103458 -0.109903
-0.975096 0.156471 -0.157177
-0.958157 0.203518 -0.201286
-0.939481 0.243876 -0.240624
-0.920751 0.277514 -0.274233
-0.903191 0.30518 -0.301845
-0.887221 0.328522 -0.323902
-0.87216 0.350232 -0.341576
-0.855954 0.374162 -0.356856
-0.834746 0.405156 -0.37289
-0.802076 0.447946 -0.394992
-0.7477 0.503776 -0.432615
-0.658091 0.565912 -0.496648
-0.52225 0.624141 -0.581122
-0.311135 -0.186935 0.931799
-0.219273 -0.219273 0.950705
-0.0840301 -0.289825 0.953384
0.0735411 -0.39809 0.914394
0.225379 -0.528814 0.818267
0.348195 -0.658606 0.667082
0.428843 -0.76799 0.475695
0.462869 -0.846204 0.26399
0.45166 -0.89071 0.0513777
0.400051 -0.904802 -0.145922
0.314912 -0.895065 -0.315735
0.204396 -0.869335 -0.449976
0.0773936 -0.835215 -0.544451
-0.0571121 -0.799045 -0.598552
-0.190817 -0.765265 -0.614783
-0.31684 -0.736176 -0.598045
-0.430247 -0.71213 -0.554759
-0.528247 -0.692043 -0.491967
-0.610044 -0.674028 -0.416572
-0.676452 -0.655994 -0.334791
-0.72935 -0.636104 -0.251834
-0.771144 -0.613051 -0.171772
-0.804319 -0.586131 -0.0975757
-0.831189 -0.555109 -0.0312707
-0.853793 -0.519972 0.0258156
-0.873865 -0.480686 0.0728037
-0.892786 -0.437082 0.109056
-0.91149 -0.388862 0.13406
-0.930357 -0.335716 0.147412
-0.949125 -0.277471 0.148904
-0.966885 -0.21424 0.138689
-0.982206 -0.146549 0.117449
-0.99339 -0.0754237 0.0865257
-0.998849 -0.00243638 0.0479115
-0.997515 0.0703351 0.00410251
-0.989185 0.140477 -0.0421789
-0.974652 0.205563 -0.0883012
-0.955574 0.263545 -0.131992
-0.934117 0.313064 -0.171514
-0.912473 0.353624 -0.205775
-0.892381 0.38565 -0.234371
-0.874711 0.410528 -0.257582
-0.859153 0.430682 -0.27635
-0.843995 0.449695 -0.292313
-0.825857 0.472318 -0.308021
-0.799211 0.503872 -0.327682
-0.755486 0.548021 -0.359046
-0.682401 0.602294 -0.41421
-0.565912 0.658091 -0.496648
-0.395086 0.704788 -0.58922
-0.360745 -0.135191 0.922814
-0.30804 -0.143967 0.940417
-0.178272 -0.178272 0.967698
-0.0106264 -0.256217 0.966561
0.165936 -0.371295 0.913567
0.322174 -0.503741 0.801529
0.438941 -0.631472 0.639198
0.507803 -0.738449 0.443655
0.527895 -0.816483 0.233843
0.502806 -0.863977 0.0270363
0.438546 -0.883879 -0.162586
0.342531 -0.881761 -0.3243
0.223081 -0.864285 -0.450829
0.0890422 -0.838056 -0.538269
-0.0507318 -0.808742 -0.585972
-0.188069 -0.780444 -0.59627
-0.316207 -0.755387 -0.573937
-0.430363 -0.734007 -0.525378
-0.527962 -0.715367 -0.457717
-0.608521 -0.697736 -0.377977
-0.673221 -0.67914 -0.292476
-0.724329 -0.657809 -0.206483
-0.764589 -0.632458 -0.124095
-0.796752 -0.602373 -0.048295
-0.82331 -0.567279 0.0188612
-0.846402 -0.527094 0.0759962
-0.867777 -0.481703 0.122165
-0.888707 -0.430873 0.156675
-0.909863 -0.374302 0.179015
-0.931196 -0.311757 0.188897
-0.951892 -0.243229 0.186393
-0.970459 -0.169079 0.172108
-0.984973 -0.0901612 0.147303
-0.99346 -0.00793954 0.113902
-0.994375 0.0754427 0.0743422
-0.987067 0.157222 0.0313164
-0.97208 0.234315 -0.0125324
-0.951148 0.303821 -0.0548679
-0.926839 0.36354 -0.0938469
-0.901973 0.412304 -0.128258
-0.878965 0.450092 -0.157597
-0.859281 0.478005 -0.182063
-0.843062 0.498235 -0.202506
-0.828913 0.514128 -0.220398
-0.813754 0.53028 -0.237925
-0.792578 0.552289 -0.258452
-0.757924 0.58537 -0.287911
-0.699071 0.630761 -0.336809
-0.602294 0.682401 -0.41421
-0.452623 0.731923 -0.509334
-0.39855 -0.0844776 0.913248
-0.289825 -0.0840301 0.953384
-0.122897 -0.122897 0.984781
0.0713733 -0.208569 0.9754
0.259054 -0.329039 0.908089
0.413917 -0.462938 0.783812
0.522035 -0.590711 0.615255
0.579095 -0.699098 0.419418
0.586633 -0.781244 0.213354
0.549411 -0.835461 0.0123383
0.473994 -0.863791 -0.170862
0.368071 -0.870666 -0.326289
0.24008 -0.861748 -0.446937
0.0989099 -0.842939 -0.528838
-0.0465439 -0.819547 -0.571118
-0.188033 -0.79559 -0.575917
-0.318731 -0.773393 -0.547972
-0.433885 -0.753572 -0.493835
-0.531109 -0.735381 -0.420877
-0.610251 -0.71725 -0.336373
-0.672925 -0.697314 -0.246828
-0.721858 -0.673852 -0.157623
-0.760207 -0.645576 -0.0729104
-0.79105 -0.611736 0.00429276
-0.817099 -0.571997 0.071896
-0.840599 -0.526199 0.12848
-0.863259 -0.474163 0.173071
-0.886124 -0.415642 0.205001
-0.909445 -0.350403 0.223892
-0.93259 -0.278364 0.229758
-0.954099 -0.199739 0.223157
-0.971897 -0.115173 0.205308
-0.983674 -0.0258979 0.178087
-0.987387 0.0660994 0.143869
-0.981817 0.157977 0.105257
-0.967048 0.246207 0.0648114
-0.944665 0.327095 0.0248368
-0.91752 0.397485 -0.0127721
-0.889092 0.455341 -0.046694
-0.862642 0.500025 -0.0763209
-0.840432 0.532272 -0.101793
-0.823213 0.55404 -0.123936
-0.809978 0.56846 -0.144185
-0.797874 0.579928 -0.164559
-0.782143 0.594104 -0.187863
-0.755917 0.61711 -0.218553
-0.709668 0.652939 -0.264654
-0.630761 0.699071 -0.336809
-0.503776 0.7477 -0.432615
-0.314078 0.788896 -0.528202
-0.468024 -0.0399859 0.882811
-0.407371 -0.0120787 0.913183
-0.256217 -0.0106264 0.966561
-0.056309 -0.056309 0.996824
0.156199 -0.149853 0.976292
0.34761 -0.274863 0.896447
0.497083 -0.410748 0.764326
0.59569 -0.540776 0.593898
0.64204 -0.65367 0.400624
0.638888 -0.743007 0.199407
0.59138 -0.806383 0.00390113
0.50624 -0.844662 -0.173977
0.391283 -0.861149 -0.324531
0.25508 -0.860683 -0.440634
0.106677 -0.848706 -0.517994
-0.044794 -0.830384 -0.555387
-0.190799 -0.809828 -0.554774
-0.324291 -0.789566 -0.520981
-0.440477 -0.770444 -0.460864
-0.537167 -0.75192 -0.38219
-0.6146 -0.732573 -0.292582
-0.674904 -0.710623 -0.198795
-0.721345 -0.684362 -0.10635
-0.757564 -0.65247 -0.0194796
-0.787011 -0.614135 0.0587517
-0.812625 -0.568955 0.126215
-0.836703 -0.516716 0.181474
-0.860782 -0.457231 0.223593
-0.885503 -0.390325 0.252054
-0.910499 -0.315923 0.266804
-0.934419 -0.234169 0.268377
-0.955119 -0.145553 0.257997
-0.97003 -0.0510741 0.237557
-0.976669 0.0475386 0.209422
-0.973242 0.147587 0.176119
-0.959255 0.245381 0.140063
-0.935931 0.336655 0.10342
-0.906191 0.417359 0.0680358
-0.874081 0.484495 0.0353024
-0.843774 0.536665 0.00594477
-0.818509 0.574142 -0.0200929
-0.799838 0.598629 -0.0436206
-0.787283 0.613038 -0.0661019
-0.778251 0.621537 -0.0895392
-0.76809 0.629666 -0.116442
-0.750148 0.643982 -0.150215
-0.715594 0.670297 -0.196539
-0.652939 0.709668 -0.264654
-0.548021 0.755486 -0.359046
-0.38487 0.79949 -0.461184
-0.519036 0.0373973 0.853934
-0.39809 0.0735411 0.914394
-0.208569 0.0713733 0.9754
0.0167589 0.0167589 0.999719
0.238685 -0.0843204 0.967429
0.428015 -0.213353 0.878228
0.569889 -0.351899 0.742559
0.65935 -0.485859 0.573759
0.696652 -0.605296 0.385089
0.684824 -0.703663 0.189404
0.628854 -0.777523 -0.000869312
0.535354 -0.826459 -0.174248
0.412181 -0.852709 -0.320928
0.268068 -0.860423 -0.433372
0.112365 -0.854733 -0.506759
-0.0453523 -0.840803 -0.539438
-0.196068 -0.822932 -0.533236
-0.332391 -0.803909 -0.493201
-0.449465 -0.784827 -0.426647
-0.545334 -0.765341 -0.341853
-0.620713 -0.744159 -0.246864
-0.678332 -0.719547 -0.14872
-0.722078 -0.68977 -0.0531088
-0.756144 -0.653434 0.0356392
-0.78437 -0.609653 0.114395
-0.809872 -0.557983 0.181002
-0.83486 -0.498222 0.234059
-0.860494 -0.430278 0.272786
-0.886771 -0.354156 0.297004
-0.912525 -0.270029 0.307216
-0.935608 -0.178341 0.304684
-0.953258 -0.0799455 0.29139
-0.962631 0.0236639 0.26978
-0.961427 0.130032 0.242383
-0.948575 0.235539 0.211486
-0.92482 0.335638 0.179038
-0.892937 0.425598 0.146727
-0.857344 0.501518 0.115933
-0.823062 0.561173 0.0874852
-0.794384 0.604299 0.0614509
-0.773828 0.63231 0.0370758
-0.761609 0.64791 0.0128557
-0.755508 0.655005 -0.0132971
-0.75096 0.658892 -0.0438283
-0.741301 0.666205 -0.0815098
-0.717962 0.683798 -0.130195
-0.670297 0.715594 -0.196539
-0.58537 0.757924 -0.287911
-0.447946 0.802076 -0.394992
-0.243564 0.839711 -0.485346
-0.603499 0.0647009 0.794734
-0.534698 0.128411 0.835229
-0.371295 0.165936 0.913567
-0.149853 0.156199 0.976292
0.0915292 0.0915292 0.991587
0.315284 -0.0162859 0.948857
0.498665 -0.14886 0.853917
0.632175 -0.290444 0.71833
0.713539 -0.429232 0.553735
0.743612 -0.556196 0.371062
0.725044 -0.664393 0.181363
0.662292 -0.749235 -0.00385695
0.561668 -0.809017 -0.173263
0.431002 -0.844953 -0.316689
0.27925 -0.860566 -0.425964
0.116223 -0.860747 -0.495587
-0.0478568 -0.850719 -0.523437
-0.203324 -0.835017 -0.511278
-0.342361 -0.816715 -0.464506
-0.460055 -0.797151 -0.391025
-0.554748 -0.77616 -0.299717
-0.627717 -0.752548 -0.199107
-0.682396 -0.724579 -0.0965489
-0.723388 -0.690438 0.00207337
-0.755484 -0.648632 0.0923091
-0.782885 -0.598218 0.170959
-0.80875 -0.538783 0.235873
-0.834973 -0.470259 0.285793
-0.862059 -0.392776 0.320283
-0.889125 -0.306635 0.339751
-0.914077 -0.212352 0.345499
-0.934008 -0.11077 0.339645
-0.945769 -0.00325191 0.324822
-0.946636 0.10797 0.303682
-0.935037 0.219465 0.278463
-0.911232 0.326657 0.250899
-0.877716 0.424425 0.222437
-0.839059 0.508142 0.194348
-0.800968 0.574794 0.16752
-0.768756 0.623541 0.142162
-0.745987 0.655489 0.117631
-0.733716 0.673142 0.092416
-0.730251 0.680148 0.0642894
-0.731196 0.681477 0.0306774
-0.729783 0.683592 -0.0109435
-0.717385 0.693804 -0.0631988
-0.683798 0.717962 -0.130195
-0.61711 0.755917 -0.218553
-0.503872 0.799211 -0.327682
-0.329225 0.83967 -0.431932
-0.654651 0.156566 0.739539
-0.528814 0.225379 0.818267
-0.329039 0.259054 0.908089
-0.0843204 0.238685 0.967429
0.164166 0.164166 0.972676
0.384156 0.0507542 0.921872
0.559479 -0.0847327 0.824502
0.684806 -0.229282 0.691715
0.759393 -0.373048 0.533064
0.783969 -0.507674 0.357296
0.760393 -0.625747 0.173907
0.692346 -0.721538 -0.00631799
0.585685 -0.792074 -0.172021
0.448169 -0.837548 -0.312504
0.289038 -0.860851 -0.4188
0.118716 -0.866631 -0.484621
-0.0517485 -0.860184 -0.507351
-0.211905 -0.846294 -0.488756
-0.353455 -0.828319 -0.434691
-0.471445 -0.807831 -0.353764
-0.564589 -0.784816 -0.255544
-0.63483 -0.758131 -0.149092
-0.686419 -0.725986 -0.0421182
-0.724767 -0.68644 0.0592666
-0.755276 -0.637901 0.150466
-0.782401 -0.579448 0.228229
-0.809105 -0.510839 0.290504
-0.836651 -0.432292 0.336363
-0.86459 -0.344301 0.36598
-0.890967 -0.24758 0.380633
-0.912764 -0.143107 0.382599
-0.926552 -0.0322659 0.374781
-0.929236 0.0828308 0.360083
-0.918831 0.198952 0.340833
-0.895183 0.311657 0.318617
-0.860459 0.415704 0.294619
-0.819217 0.505987 0.269928
-0.777644 0.578823 0.245426
-0.741959 0.632813 0.221459
-0.716762 0.668751 0.197546
-0.704043 0.688957 0.172226
-0.702788 0.696852 0.143127
-0.708922 0.697061 0.107407
-0.715598 0.695715 0.0624501
-0.713941 0.700177 0.00628597
-0.693804 0.717385 -0.0631988
-0.643982 0.750148 -0.150215
-0.552289 0.792578 -0.258452
-0.405156 0.834746 -0.37289
-0.189095 0.869897 -0.455546
-0.741526 0.159856 0.651602
-0.667716 0.252699 0.700214
-0.503741 0.322174 0.801529
-0.274863 0.34761 0.896447
-0.0162859 0.315284 0.948857
0.232118 0.232118 0.944586
0.444802 0.114458 0.888285
0.611273 -0.023121 0.791082
0.729103 -0.170149 0.662916
0.798234 -0.318462 0.511277
0.818843 -0.460282 0.342983
0.79177 -0.587784 0.166165
0.719745 -0.69418 -0.00901228
0.608038 -0.775253 -0.171092
0.464281 -0.830133 -0.308741
0.29805 -0.861019 -0.412083
0.120508 -0.87227 -0.473944
-0.0563212 -0.869234 -0.491182
-0.22108 -0.856933 -0.465606
-0.364934 -0.838988 -0.403636
-0.482909 -0.81717 -0.314693
-0.574172 -0.791574 -0.209136
-0.64145 -0.761054 -0.0966347
-0.689942 -0.723715 0.0146893
-0.725944 -0.677476 0.118457
-0.755414 -0.620712 0.209922
-0.782838 -0.552678 0.285854
-0.810643 -0.473486 0.344483
-0.839097 -0.383812 0.385492
-0.866529 -0.284664 0.409991
-0.889858 -0.17731 0.420373
-0.905376 -0.0633304 0.41986
-0.90963 0.0551275 0.411745
-0.900283 0.174958 0.398599
-0.876855 0.291921 0.381978
-0.841218 0.400868 0.362847
-0.797807 0.496468 0.342086
-0.753116 0.574531 0.320517
-0.714104 0.633163 0.298598
-0.686339 0.672855 0.276052
-0.672772 0.695777 0.25154
-0.673192 0.705171 0.222591
-0.684017 0.705351 0.186011
-0.698452 0.702063 0.138821
-0.707304 0.702461 0.0791838
-0.700177 0.713941 0.00628597
-0.666205 0.741301 -0.0815098
-0.594104 0.782143 -0.187863
-0.472318 0.825857 -0.308021
-0.287816 0.864534 -0.411998
-0.779842 0.25325 0.572461
-0.658606 0.348195 0.667082
-0.462938 0.413917 0.783812
-0.213353 0.428015 0.878228
0.0507542 0.384156 0.921872
0.294069 0.294069 0.909421
0.497593 0.173583 0.849865
0.655239 0.0348728 0.754616
0.766439 -0.113838 0.632149
0.831302 -0.265865 0.488112
0.849257 -0.414017 0.327646
0.82002 -0.550198 0.157636
0.745237 -0.666685 -0.0123646
0.629455 -0.758033 -0.1708
0.480096 -0.822245 -0.305649
0.307078 -0.860727 -0.40602
0.122394 -0.877475 -0.463743
-0.0608076 -0.877839 -0.475081
-0.230136 -0.867035 -0.441914
-0.376147 -0.848897 -0.371332
-0.493863 -0.825336 -0.273715
-0.582996 -0.796495 -0.160347
-0.647204 -0.76118 -0.0416144
-0.692768 -0.717366 0.0738808
-0.726889 -0.662892 0.179463
-0.755926 -0.596254 0.270289
-0.784058 -0.517097 0.343313
-0.812754 -0.426088 0.397341
-0.840922 -0.324548 0.433035
-0.865524 -0.214177 0.452766
-0.882568 -0.0969539 0.46008
-0.888214 0.0247456 0.458763
-0.879791 0.147804 0.451799
-0.856575 0.268166 0.44087
-0.820202 0.380922 0.42681
-0.774942 0.480734 0.410317
-0.727447 0.563083 0.392119
-0.685268 0.625664 0.372764
-0.654826 0.668697 0.352203
-0.640007 0.694224 0.329309
-0.641475 0.705375 0.301589
-0.656307 0.706237 0.265501
-0.677948 0.702194 0.217509
-0.696945 0.700069 0.15547
-0.702461 0.707304 0.0791838
-0.683592 0.729783 -0.0109435
-0.629666 0.76809 -0.116442
-0.53028 0.813754 -0.237925
-0.374162 0.855954 -0.356856
-0.148821 0.889276 -0.432482
-0.856652 0.229519 0.462026
-0.783426 0.343413 0.517988
-0.631472 0.438941 0.639198
-0.410748 0.497083 0.764326
-0.14886 0.498665 0.853917
0.114458 0.444802 0.888285
0.349663 0.349663 0.869179
0.543346 0.227729 0.808032
0.692606 0.0889193 0.715814
0.798022 -0.0604799 0.599585
0.859623 -0.215124 0.463433
0.876057 -0.36849 0.311029
0.845887 -0.512401 0.148052
0.769561 -0.638357 -0.0166191
0.650733 -0.739713 -0.17138
0.496479 -0.813264 -0.303496
0.317014 -0.859505 -0.40094
0.125224 -0.881962 -0.454382
-0.0644615 -0.8859 -0.459376
-0.238452 -0.876645 -0.417893
-0.386591 -0.858145 -0.337839
-0.503911 -0.83236 -0.230761
-0.590789 -0.79942 -0.109067
-0.651974 -0.758072 0.0160053
-0.694939 -0.706224 0.135307
-0.727733 -0.641788 0.241893
-0.756836 -0.563612 0.330968
-0.785675 -0.471953 0.399969
-0.814289 -0.368266 0.44868
-0.839947 -0.254752 0.479156
-0.8584 -0.133998 0.495171
-0.86536 -0.0088555 0.501072
-0.857785 0.117346 0.500435
-0.83476 0.240652 0.49524
-0.797758 0.35647 0.486324
-0.750869 0.459639 0.474266
-0.700812 0.545469 0.459701
-0.655594 0.611339 0.443239
-0.622373 0.657232 0.425086
-0.605897 0.685087 0.404407
-0.607725 0.697977 0.378812
-0.625723 0.699861 0.344478
-0.65378 0.695862 0.297234
-0.682341 0.692471 0.234297
-0.700069 0.696945 0.15547
-0.695715 0.715598 0.0624501
-0.658892 0.75096 -0.0438283
-0.579928 0.797874 -0.164559
-0.449695 0.843995 -0.292313
-0.25701 0.88199 -0.395017
-0.874944 0.314503 0.368186
-0.76799 0.428843 0.475695
-0.590711 0.522035 0.615255
-0.351899 0.569889 0.742559
-0.0847327 0.559479 0.824502
0.173583 0.497593 0.849865
0.399162 0.399162 0.825432
0.583006 0.277042 0.763774
0.72445 0.13918 0.67513
0.824804 -0.0097875 0.565334
0.883966 -0.165772 0.437176
0.899886 -0.323044 0.292999
0.869991 -0.473577 0.137259
0.793415 -0.608285 -0.0219612
0.6727 -0.719383 -0.173099
0.514362 -0.802382 -0.302678
0.328799 -0.856735 -0.397363
0.129835 -0.885351 -0.446427
-0.066618 -0.893272 -0.444552
-0.24555 -0.885775 -0.393837
-0.395945 -0.866762 -0.303233
-0.512874 -0.838123 -0.185766
-0.597516 -0.799953 -0.0552307
-0.655874 -0.751022 0.0761263
-0.696661 -0.689363 0.198599
-0.728628 -0.6132 0.305101
-0.757979 -0.521962 0.391182
-0.78683 -0.416776 0.455188
-0.813329 -0.300196 0.498375
-0.833129 -0.175575 0.52447
-0.841425 -0.0465401 0.538366
-0.834705 0.0830842 0.544394
-0.811875 0.20927 0.545037
-0.774319 0.327766 0.541294
-0.725948 0.433735 0.533735
-0.673491 0.522456 0.522924
-0.625313 0.591081 0.509517
-0.589201 0.639394 0.493981
-0.570674 0.669245 0.475859
-0.57216 0.683686 0.452997
-0.592384 0.686643 0.421429