# vtk DataFile Version 2.0
tmp/0.000.00-10.000.000.001.0091.vtk
ASCII
DATASET UNSTRUCTURED_GRID
POINTS 5000 float
0.75 0.25 0
1.75 0.25 0
2.75 0.25 0
3.75 0.25 0
4.75 0.25 0
5.75 0.25 0
6.75 0.25 0
7.75 0.25 0
8.75 0.25 0
9.75 0.25 0
10.75 0.25 0
11.75 0.25 0
12.75 0.25 0
13.75 0.25 0
14.75 0.25 0
15.75 0.25 0
16.75 0.25 0
17.75 0.25 0
18.75 0.25 0
19.75 0.25 0
20.75 0.25 0
21.75 0.25 0
22.75 0.25 0
23.75 0.25 0
24.75 0.25 0
25.75 0.25 0
26.75 0.25 0
27.75 0.25 0
28.75 0.25 0
29.75 0.25 0
30.75 0.25 0
31.75 0.25 0
32.75 0.25 0
33.75 0.25 0
34.75 0.25 0
35.75 0.25 0
36.75 0.25 0
37.75 0.25 0
38.75 0.25 0
39.75 0.25 0
40.75 0.25 0
41.75 0.25 0
42.75 0.25 0
43.75 0.25 0
44.75 0.25 0
45.75 0.25 0
46.75 0.25 0
47.75 0.25 0
48.75 0.25 0
49.75 0.25 0
0.25 0.75 0
1.25 0.75 0
2.25 0.75 0
3.25 0.75 0
4.25 0.75 0
5.25 0.75 0
6.25 0.75 0
7.25 0.75 0
8.25 0.75 0
9.25 0.75 0
10.25 0.75 0
11.25 0.75 0
12.25 0.75 0
13.25 0.75 0
14.25 0.75 0
15.25 0.75 0
16.25 0.75 0
17.25 0.75 0
18.25 0.75 0
19.25 0.75 0
20.25 0.75 0
21.25 0.75 0
22.25 0.75 0
23.25 0.75 0
24.25 0.75 0
25.25 0.75 0
26.25 0.75 0
27.25 0.75 0
28.25 0.75 0
29.25 0.75 0
30.25 0.75 0
31.25 0.75 0
32.25 0.75 0
33.25 0.75 0
34.25 0.75 0
35.25 0.75 0
36.25 0.75 0
37.25 0.75 0
38.25 0.75 0
39.25 0.75 0
40.25 0.75 0
41.25 0.75 0
42.25 0.75 0
43.25 0.75 0
44.25 0.75 0
45.25 0.75 0
46.25 0.75 0
47.25 0.75 0
48.25 0.75 0
49.25 0.75 0
0.75 1.25 0
1.75 1.25 0
2.75 1.25 0
3.75 1.25 0
4.75 1.25 0
5.75 1.25 0
6.75 1.25 0
7.75 1.25 0
8.75 1.25 0
9.75 1.25 0
10.75 1.25 0
11.75 1.25 0
12.75 1.25 0
13.75 1.25 0
14.75 1.25 0
15.75 1.25 0
16.75 1.25 0
17.75 1.25 0
18.75 1.25 0
19.75 1.25 0
20.75 1.25 0
21.75 1.25 0
22.75 1.25 0
23.75 1.25 0
24.75 1.25 0
25.75 1.25 0
26.75 1.25 0
27.75 1.25 0
28.75 1.25 0
29.75 1.25 0
30.75 1.25 0
31.75 1.25 0
32.75 1.25 0
33.75 1.25 0
34.75 1.25 0
35.75 1.25 0
36.75 1.25 0
37.75 1.25 0
38.75 1.25 0
39.75 1.25 0
40.75 1.25 0
41.75 1.25 0
42.75 1.25 0
43.75 1.25 0
44.75 1.25 0
45.75 1.25 0
46.75 1.25 0
47.75 1.25 0
48.75 1.25 0
49.75 1.25 0
0.25 1.75 0
1.25 1.75 0
2.25 1.75 0
3.25 1.75 0
4.25 1.75 0
5.25 1.75 0
6.25 1.75 0
7.25 1.75 0
8.25 1.75 0
9.25 1.75 0
10.25 1.75 0
11.25 1.75 0
12.25 1.75 0
13.25 1.75 0
14.25 1.75 0
15.25 1.75 0
16.25 1.75 0
17.25 1.75 0
18.25 1.75 0
19.25 1.75 0
20.25 1.75 0
21.25 1.75 0
22.25 1.75 0
23.25 1.75 0
24.25 1.75 0
25.25 1.75 0
26.25 1.75 0
27.25 1.75 0
28.25 1.75 0
29.25 1.75 0
30.25 1.75 0
31.25 1.75 0
32.25 1.75 0
33.25 1.75 0
34.25 1.75 0
35.25 1.75 0
36.25 1.75 0
37.25 1.75 0
38.25 1.75 0
39.25 1.75 0
40.25 1.75 0
41.25 1.75 0
42.25 1.75 0
43.25 1.75 0
44.25 1.75 0
45.25 1.75 0
46.25 1.75 0
47.25 1.75 0
48.25 1.75 0
49.25 1.75 0
0.75 2.25 0
1.75 2.25 0
2.75 2.25 0
3.75 2.25 0
4.75 2.25 0
5.75 2.25 0
6.75 2.25 0
7.75 2.25 0
8.75 2.25 0
9.75 2.25 0
10.75 2.25 0
11.75 2.25 0
12.75 2.25 0
13.75 2.25 0
14.75 2.25 0
15.75 2.25 0
16.75 2.25 0
17.75 2.25 0
18.75 2.25 0
19.75 2.25 0
20.75 2.25 0
21.75 2.25 0
22.75 2.25 0
23.75 2.25 0
24.75 2.25 0
25.75 2.25 0
26.75 2.25 0
27.75 2.25 0
28.75 2.25 0
29.75 2.25 0
30.75 2.25 0
31.75 2.25 0
32.75 2.25 0
33.75 2.25 0
34.75 2.25 0
35.75 2.25 0
36.75 2.25 0
37.75 2.25 0
38.75 2.25 0
39.75 2.25 0
40.75 2.25 0
41.75 2.25 0
42.75 2.25 0
43.75 2.25 0
44.75 2.25 0
45.75 2.25 0
46.75 2.25 0
47.75 2.25 0
48.75 2.25 0
49.75 2.25 0
0.25 2.75 0
1.25 2.75 0
2.25 2.75 0
3.25 2.75 0
4.25 2.75 0
5.25 2.75 0
6.25 2.75 0
7.25 2.75 0
8.25 2.75 0
9.25 2.75 0
10.25 2.75 0
11.25 2.75 0
12.25 2.75 0
13.25 2.75 0
14.25 2.75 0
15.25 2.75 0
16.25 2.75 0
17.25 2.75 0
18.25 2.75 0
19.25 2.75 0
20.25 2.75 0
21.25 2.75 0
22.25 2.75 0
23.25 2.75 0
24.25 2.75 0
25.25 2.75 0
26.25 2.75 0
27.25 2.75 0
28.25 2.75 0
29.25 2.75 0
30.25 2.75 0
31.25 2.75 0
32.25 2.75 0
33.25 2.75 0
34.25 2.75 0
35.25 2.75 0
36.25 2.75 0
37.25 2.75 0
38.25 2.75 0
39.25 2.75 0
40.25 2.75 0
41.25 2.75 0
42.25 2.75 0
43.25 2.75 0
44.25 2.75 0
45.25 2.75 0
46.25 2.75 0
47.25 2.75 0
48.25 2.75 0
49.25 2.75 0
0.75 3.25 0
1.75 3.25 0
2.75 3.25 0
3.75 3.25 0
4.75 3.25 0
5.75 3.25 0
6.75 3.25 0
7.75 3.25 0
8.75 3.25 0
9.75 3.25 0
10.75 3.25 0
11.75 3.25 0
12.75 3.25 0
13.75 3.25 0
14.75 3.25 0
15.75 3.25 0
16.75 3.25 0
17.75 3.25 0
18.75 3.25 0
19.75 3.25 0
20.75 3.25 0
21.75 3.25 0
22.75 3.25 0
23.75 3.25 0
24.75 3.25 0
25.75 3.25 0
26.75 3.25 0
27.75 3.25 0
28.75 3.25 0
29.75 3.25 0
30.75 3.25 0
31.75 3.25 0
32.75 3.25 0
33.75 3.25 0
34.75 3.25 0
35.75 3.25 0
36.75 3.25 0
37.75 3.25 0
38.75 3.25 0
39.75 3.25 0
40.75 3.25 0
41.75 3.25 0
42.75 3.25 0
43.75 3.25 0
44.75 3.25 0
45.75 3.25 0
46.75 3.25 0
47.75 3.25 0
48.75 3.25 0
49.75 3.25 0
0.25 3.75 0
1.25 3.75 0
2.25 3.75 0
3.25 3.75 0
4.25 3.75 0
5.25 3.75 0
6.25 3.75 0
7.25 3.75 0
8.25 3.75 0
9.25 3.75 0
10.25 3.75 0
11.25 3.75 0
12.25 3.75 0
13.25 3.75 0
14.25 3.75 0
15.25 3.75 0
16.25 3.75 0
17.25 3.75 0
18.25 3.75 0
19.25 3.75 0
20.25 3.75 0
21.25 3.75 0
22.25 3.75 0
23.25 3.75 0
24.25 3.75 0
25.25 3.75 0
26.25 3.75 0
27.25 3.75 0
28.25 3.75 0
29.25 3.75 0
30.25 3.75 0
31.25 3.75 0
32.25 3.75 0
33.25 3.75 0
34.25 3.75 0
35.25 3.75 0
36.25 3.75 0
37.25 3.75 0
38.25 3.75 0
39.25 3.75 0
40.25 3.75 0
41.25 3.75 0
42.25 3.75 0
43.25 3.75 0
44.25 3.75 0
45.25 3.75 0
46.25 3.75 0
47.25 3.75 0
48.25 3.75 0
49.25 3.75 0
0.75 4.25 0
1.75 4.25 0
2.75 4.25 0
3.75 4.25 0
4.75 4.25 0
5.75 4.25 0
6.75 4.25 0
7.75 4.25 0
8.75 4.25 0
9.75 4.25 0
10.75 4.25 0
11.75 4.25 0
12.75 4.25 0
13.75 4.25 0
14.75 4.25 0
15.75 4.25 0
16.75 4.25 0
17.75 4.25 0
18.75 4.25 0
19.75 4.25 0
20.75 4.25 0
21.75 4.25 0
22.75 4.25 0
23.75 4.25 0
24.75 4.25 0
25.75 4.25 0
26.75 4.25 0
27.75 4.25 0
28.75 4.25 0
29.75 4.25 0
30.75 4.25 0
31.75 4.25 0
32.75 4.25 0
33.75 4.25 0
34.75 4.25 0
35.75 4.25 0
36.75 4.25 0
37.75 4.25 0
38.75 4.25 0
39.75 4.25 0
40.75 4.25 0
41.75 4.25 0
42.75 4.25 0
43.75 4.25 0
44.75 4.25 0
45.75 4.25 0
46.75 4.25 0
47.75 4.25 0
48.75 4.25 0
49.75 4.25 0
0.25 4.75 0
1.25 4.75 0
2.25 4.75 0
3.25 4.75 0
4.25 4.75 0
5.25 4.75 0
6.25 4.75 0
7.25 4.75 0
8.25 4.75 0
9.25 4.75 0
10.25 4.75 0
11.25 4.75 0
12.25 4.75 0
13.25 4.75 0
14.25 4.75 0
15.25 4.75 0
16.25 4.75 0
17.25 4.75 0
18.25 4.75 0
19.25 4.75 0
20.25 4.75 0
21.25 4.75 0
22.25 4.75 0
23.25 4.75 0
24.25 4.75 0
25.25 4.75 0
26.25 4.75 0
27.25 4.75 0
28.25 4.75 0
29.25 4.75 0
30.25 4.75 0
31.25 4.75 0
32.25 4.75 0
33.25 4.75 0
34.25 4.75 0
35.25 4.75 0
36.25 4.75 0
37.25 4.75 0
38.25 4.75 0
39.25 4.75 0
40.25 4.75 0
41.25 4.75 0
42.25 4.75 0
43.25 4.75 0
44.25 4.75 0
45.25 4.75 0
46.25 4.75 0
47.25 4.75 0
48.25 4.75 0
49.25 4.75 0
0.75 5.25 0
1.75 5.25 0
2.75 5.25 0
3.75 5.25 0
4.75 5.25 0
5.75 5.25 0
6.75 5.25 0
7.75 5.25 0
8.75 5.25 0
9.75 5.25 0
10.75 5.25 0
11.75 5.25 0
12.75 5.25 0
13.75 5.25 0
14.75 5.25 0
15.75 5.25 0
16.75 5.25 0
17.75 5.25 0
18.75 5.25 0
19.75 5.25 0
20.75 5.25 0
21.75 5.25 0
22.75 5.25 0
23.75 5.25 0
24.75 5.25 0
25.75 5.25 0
26.75 5.25 0
27.75 5.25 0
28.75 5.25 0
29.75 5.25 0
30.75 5.25 0
31.75 5.25 0
32.75 5.25 0
33.75 5.25 0
34.75 5.25 0
35.75 5.25 0
36.75 5.25 0
37.75 5.25 0
38.75 5.25 0
39.75 5.25 0
40.75 5.25 0
41.75 5.25 0
42.75 5.25 0
43.75 5.25 0
44.75 5.25 0
45.75 5.25 0
46.75 5.25 0
47.75 5.25 0
48.75 5.25 0
49.75 5.25 0
0.25 5.75 0
1.25 5.75 0
2.25 5.75 0
3.25 5.75 0
4.25 5.75 0
5.25 5.75 0
6.25 5.75 0
7.25 5.75 0
8.25 5.75 0
9.25 5.75 0
10.25 5.75 0
11.25 5.75 0
12.25 5.75 0
13.25 5.75 0
14.25 5.75 0
15.25 5.75 0
16.25 5.75 0
17.25 5.75 0
18.25 5.75 0
19.25 5.75 0
20.25 5.75 0
21.25 5.75 0
22.25 5.75 0
23.25 5.75 0
24.25 5.75 0
25.25 5.75 0
26.25 5.75 0
27.25 5.75 0
28.25 5.75 0
29.25 5.75 0
30.25 5.75 0
31.25 5.75 0
32.25 5.75 0
33.25 5.75 0
34.25 5.75 0
35.25 5.75 0
36.25 5.75 0
37.25 5.75 0
38.25 5.75 0
39.25 5.75 0
40.25 5.75 0
41.25 5.75 0
42.25 5.75 0
43.25 5.75 0
44.25 5.75 0
45.25 5.75 0
46.25 5.75 0
47.25 5.75 0
48.25 5.75 0
49.25 5.75 0
0.75 6.25 0
1.75 6.25 0
2.75 6.25 0
3.75 6.25 0
4.75 6.25 0
5.75 6.25 0
6.75 6.25 0
7.75 6.25 0
8.75 6.25 0
9.75 6.25 0
10.75 6.25 0
11.75 6.25 0
12.75 6.25 0
13.75 6.25 0
14.75 6.25 0
15.75 6.25 0
16.75 6.25 0
17.75 6.25 0
18.75 6.25 0
19.75 6.25 0
20.75 6.25 0
21.75 6.25 0
22.75 6.25 0
23.75 6.25 0
24.75 6.25 0
25.75 6.25 0
26.75 6.25 0
27.75 6.25 0
28.75 6.25 0
29.75 6.25 0
30.75 6.25 0
31.75 6.25 0
32.75 6.25 0
33.75 6.25 0
34.75 6.25 0
35.75 6.25 0
36.75 6.25 0
37.75 6.25 0
38.75 6.25 0
39.75 6.25 0
40.75 6.25 0
41.75 6.25 0
42.75 6.25 0
43.75 6.25 0
44.75 6.25 0
45.75 6.25 0
46.75 6.25 0
47.75 6.25 0
48.75 6.25 0
49.75 6.25 0
0.25 6.75 0
1.25 6.75 0
2.25 6.75 0
3.25 6.75 0
4.25 6.75 0
5.25 6.75 0
6.25 6.75 0
7.25 6.75 0
8.25 6.75 0
9.25 6.75 0
10.25 6.75 0
11.25 6.75 0
12.25 6.75 0
13.25 6.75 0
14.25 6.75 0
15.25 6.75 0
16.25 6.75 0
17.25 6.75 0
18.25 6.75 0
19.25 6.75 0
20.25 6.75 0
21.25 6.75 0
22.25 6.75 0
23.25 6.75 0
24.25 6.75 0
25.25 6.75 0
26.25 6.75 0
27.25 6.75 0
28.25 6.75 0
29.25 6.75 0
30.25 6.75 0
31.25 6.75 0
32.25 6.75 0
33.25 6.75 0
34.25 6.75 0
35.25 6.75 0
36.25 6.75 0
37.25 6.75 0
38.25 6.75 0
39.25 6.75 0
40.25 6.75 0
41.25 6.75 0
42.25 6.75 0
43.25 6.75 0
44.25 6.75 0
45.25 6.75 0
46.25 6.75 0
47.25 6.75 0
48.25 6.75 0
49.25 6.75 0
0.75 7.25 0
1.75 7.25 0
2.75 7.25 0
3.75 7.25 0
4.75 7.25 0
5.75 7.25 0
6.75 7.25 0
7.75 7.25 0
8.75 7.25 0
9.75 7.25 0
10.75 7.25 0
11.75 7.25 0
12.75 7.25 0
13.75 7.25 0
14.75 7.25 0
15.75 7.25 0
16.75 7.25 0
17.75 7.25 0
18.75 7.25 0
19.75 7.25 0
20.75 7.25 0
21.75 7.25 0
22.75 7.25 0
23.75 7.25 0
24.75 7.25 0
25.75 7.25 0
26.75 7.25 0
27.75 7.25 0
28.75 7.25 0
29.75 7.25 0
30.75 7.25 0
31.75 7.25 0
32.75 7.25 0
33.75 7.25 0
34.75 7.25 0
35.75 7.25 0
36.75 7.25 0
37.75 7.25 0
38.75 7.25 0
39.75 7.25 0
40.75 7.25 0
41.75 7.25 0
42.75 7.25 0
43.75 7.25 0
44.75 7.25 0
45.75 7.25 0
46.75 7.25 0
47.75 7.25 0
48.75 7.25 0
49.75 7.25 0
0.25 7.75 0
1.25 7.75 0
2.25 7.75 0
3.25 7.75 0
4.25 7.75 0
5.25 7.75 0
6.25 7.75 0
7.25 7.75 0
8.25 7.75 0
9.25 7.75 0
10.25 7.75 0
11.25 7.75 0
12.25 7.75 0
13.25 7.75 0
14.25 7.75 0
15.25 7.75 0
16.25 7.75 0
17.25 7.75 0
18.25 7.75 0
19.25 7.75 0
20.25 7.75 0
21.25 7.75 0
[...]
POINT_DATA 5000
VECTORS velocity float
0.502972 0.439011 0.744505
0.581685 0.34113 0.738426
0.671261 0.219473 0.707984
0.75466 0.0764242 0.65165
0.816912 -0.0818959 0.570918
0.847422 -0.245599 0.470699
0.841449 -0.404064 0.358743
0.799736 -0.548481 0.244113
0.72703 -0.67305 0.135761
0.630482 -0.775091 0.0415443
0.518346 -0.854556 -0.0324281
0.398969 -0.913271 -0.0822149
0.28 -0.954106 -0.106219
0.16778 -0.98021 -0.105066
0.0669493 -0.994447 -0.0812008
-0.0196926 -0.999072 -0.0383011
-0.0910964 -0.995654 0.0193472
-0.147694 -0.985164 0.0873946
-0.191034 -0.968152 0.161823
-0.223392 -0.94493 0.239172
-0.247408 -0.915717 0.316625
-0.2658 -0.880738 0.391984
-0.281137 -0.840269 0.463584
-0.295691 -0.794657 0.530177
-0.311347 -0.744311 0.590817
-0.329554 -0.689694 0.644761
-0.351305 -0.63131 0.691399
-0.377136 -0.569694 0.730217
-0.407145 -0.505403 0.760789
-0.441024 -0.439008 0.782796
-0.478106 -0.37109 0.796058
-0.517431 -0.302232 0.800575
-0.557835 -0.233022 0.796568
-0.598046 -0.164052 0.784493
-0.636792 -0.0959209 0.765045
-0.672923 -0.0292364 0.739135
-0.705505 0.0353963 0.70782
-0.733911 0.0973991 0.672226
-0.757868 0.156262 0.633418
-0.777457 0.211594 0.592274
-0.79307 0.263185 0.549339
-0.805311 0.311054 0.504698
-0.814846 0.355504 0.457868
-0.822203 0.397172 0.407721
-0.827461 0.437127 0.352461
-0.829748 0.477071 0.289692
-0.826367 0.519732 0.216784
-0.811433 0.569352 0.131965
-0.774796 0.631151 0.036598
-0.705575 0.705575 -0.0657923
0.439011 0.502972 0.744505
0.504322 0.416292 0.756545
0.600183 0.30173 0.740769
0.699321 0.166565 0.69513
0.783228 0.0140556 0.621576
0.838271 -0.148196 0.524728
0.856878 -0.309982 0.411912
0.837571 -0.461708 0.292062
0.783585 -0.596334 0.174299
0.701114 -0.7099 0.0669417
0.597894 -0.801242 -0.0231017
0.482191 -0.871353 -0.0907506
0.36203 -0.922622 -0.133055
0.244549 -0.958074 -0.149299
0.135486 -0.980721 -0.14082
0.0388487 -0.993109 -0.110567
-0.0431769 -0.99711 -0.0625051
-0.110099 -0.99392 -0.00100638
-0.162823 -0.984193 0.0696573
-0.203269 -0.968228 0.145656
-0.233971 -0.94614 0.223777
-0.257722 -0.917989 0.301455
-0.277278 -0.883858 0.376713
-0.295149 -0.843889 0.44804
-0.313448 -0.798297 0.514268
-0.333812 -0.747373 0.574459
-0.357348 -0.691483 0.627817
-0.384625 -0.631067 0.67366
-0.415697 -0.566644 0.711415
-0.45015 -0.498802 0.740649
-0.487185 -0.428188 0.761121
-0.525718 -0.355488 0.772819
-0.564499 -0.281415 0.775981
-0.602236 -0.206696 0.771096
-0.637704 -0.132076 0.758874
-0.669849 -0.0583263 0.740203
-0.697873 0.0137541 0.71609
-0.721296 0.0833577 0.687593
-0.739999 0.149713 0.655734
-0.754221 0.212155 0.621402
-0.764519 0.270207 0.585234
-0.771676 0.323662 0.547503
-0.776573 0.372648 0.508003
-0.780016 0.417675 0.465964
-0.7825 0.459683 0.419981
-0.783872 0.50013 0.367987
-0.782754 0.541178 0.307282
-0.775518 0.586067 0.234727
-0.75456 0.639501 0.147233
-0.706418 0.706418 0.0441378
0.416292 0.504322 0.756545
0.510371 0.407287 0.757389
0.620611 0.283846 0.73094
0.725817 0.140133 0.673463
0.808552 -0.0186974 0.588128
0.85712 -0.18345 0.481342
0.866633 -0.34367 0.361717
0.83807 -0.490632 0.238577
0.776331 -0.618656 0.120729
0.688432 -0.725129 0.0157954
0.582291 -0.809951 -0.0701258
0.46595 -0.874798 -0.132741
0.346994 -0.92237 -0.169787
0.232032 -0.955702 -0.181092
0.126251 -0.977605 -0.168374
0.0331354 -0.990319 -0.134798
-0.0456028 -0.995389 -0.0843864
-0.109885 -0.993713 -0.0214376
-0.160957 -0.985697 0.0499453
-0.200999 -0.971434 0.126157
-0.232719 -0.950861 0.20422
-0.258992 -0.923864 0.281777
-0.282561 -0.890348 0.356986
-0.30582 -0.850269 0.428388
-0.330658 -0.803663 0.494763
-0.358363 -0.750677 0.555032
-0.389571 -0.691602 0.608212
-0.424278 -0.626906 0.653435
-0.461897 -0.557253 0.690015
-0.501384 -0.483482 0.717537
-0.541404 -0.406559 0.735929
-0.580512 -0.327511 0.745482
-0.617324 -0.247359 0.74681
-0.650648 -0.167084 0.74077
-0.679566 -0.0876221 0.728363
-0.703489 -0.0098814 0.710637
-0.722176 0.0652476 0.688625
-0.735741 0.13691 0.66328
-0.744638 0.204342 0.63542
-0.749611 0.266949 0.605658
-0.751611 0.324401 0.574321
-0.751681 0.376705 0.541359
-0.750801 0.424261 0.506261
-0.749713 0.467895 0.467979
-0.748669 0.508899 0.424873
-0.747053 0.549133 0.374653
-0.742684 0.591284 0.31433
-0.730393 0.639397 0.240201
-0.699231 0.699231 0.148833
-0.631151 0.774796 0.036598
0.34113 0.581685 0.738426
0.407287 0.510371 0.757389
0.522091 0.406655 0.749702
0.644279 0.276944 0.712886
0.753594 0.126693 0.645015
0.834111 -0.0367279 0.550372
0.876489 -0.202821 0.436614
0.878379 -0.361231 0.312991
0.842715 -0.504193 0.188736
0.775494 -0.627223 0.0721139
0.684121 -0.728754 -0.0299337
0.576452 -0.809424 -0.111965
0.460236 -0.871319 -0.170251
0.342671 -0.917262 -0.202993
0.229945 -0.950193 -0.210377
0.126829 -0.972695 -0.19437
0.0364022 -0.986725 -0.158268
-0.0400088 -0.993549 -0.106112
-0.102679 -0.993823 -0.0421156
-0.153163 -0.987752 0.02978
-0.193887 -0.975261 0.106178
-0.22773 -0.956121 0.184314
-0.257648 -0.930038 0.262005
-0.286361 -0.896708 0.337509
-0.316118 -0.855859 0.40936
-0.348515 -0.807311 0.476222
-0.384383 -0.751058 0.536807
-0.423745 -0.687366 0.589888
-0.465865 -0.616853 0.634399
-0.509407 -0.54051 0.669592
-0.552676 -0.459639 0.695185
-0.593906 -0.375713 0.711418
-0.631512 -0.290213 0.719005
-0.66426 -0.204497 0.718985
-0.691338 -0.11975 0.712539
-0.712363 -0.0370074 0.700835
-0.727345 0.0428017 0.684936
-0.736655 0.11882 0.665748
-0.740978 0.190276 0.644008
-0.741257 0.256548 0.62026
-0.738613 0.317246 0.594816
-0.734238 0.372301 0.567703
-0.729262 0.422023 0.538584
-0.724597 0.467137 0.506697
-0.720752 0.508801 0.470784
-0.717569 0.548656 0.429035
-0.713756 0.588995 0.378995
-0.705898 0.633176 0.317485
-0.686229 0.686229 0.241203
-0.639501 0.75456 0.147233
0.30173 0.600183 0.740769
0.406655 0.522091 0.749702
0.539036 0.413762 0.733649
0.670721 0.278929 0.687264
0.782377 0.123601 0.610418
0.859954 -0.0428694 0.508568
0.896649 -0.209242 0.390177
0.892354 -0.365643 0.264594
0.851401 -0.505317 0.14061
0.780373 -0.624779 0.0258648
0.686736 -0.723205 -0.0732674
0.578158 -0.801681 -0.151788
0.462131 -0.862478 -0.206315
0.345582 -0.908401 -0.23533
0.23443 -0.942229 -0.239263
0.133162 -0.966308 -0.220267
0.0445507 -0.982334 -0.181757
-0.0304073 -0.991333 -0.127807
-0.0923163 -0.993762 -0.0625708
-0.143036 -0.989665 0.0101439
-0.185247 -0.978823 0.0871191
-0.22201 -0.960849 0.165773
-0.256363 -0.93526 0.244062
-0.290987 -0.901516 0.320305
-0.327932 -0.859086 0.392979
-0.368404 -0.807558 0.460574
-0.412631 -0.746809 0.521547
-0.459853 -0.677188 0.574414
-0.50847 -0.599648 0.617965
-0.55636 -0.515735 0.651522
-0.601304 -0.427406 0.675098
-0.641367 -0.336733 0.689391
-0.675154 -0.245622 0.695584
-0.701888 -0.155654 0.695072
-0.721359 -0.068074 0.689208
-0.733822 0.0161248 0.67915
-0.739907 0.096105 0.665809
-0.740538 0.17114 0.649858
-0.736865 0.240633 0.631764
-0.73019 0.304191 0.611792
-0.721861 0.361706 0.589988
-0.713148 0.413426 0.566126
-0.705112 0.459994 0.539651
-0.698448 0.502456 0.509615
-0.693294 0.542286 0.474626
-0.688916 0.581469 0.432768
-0.683051 0.622786 0.381548
-0.670351 0.670351 0.318214
-0.639397 0.730393 0.240201
-0.569352 0.811433 0.131965
0.219473 0.671261 0.707984
0.283846 0.620611 0.73094
0.413762 0.539036 0.733649
0.560478 0.427096 0.709545
0.699134 0.287877 0.654476
0.811411 0.128788 0.57011
0.885503 -0.0393301 0.462967
0.9171 -0.205092 0.341856
0.907893 -0.359392 0.215796
0.863073 -0.496452 0.0929478
0.789397 -0.613569 -0.0196268
0.69418 -0.710402 -0.115945
0.58488 -0.788252 -0.191244
0.468813 -0.849412 -0.242309
0.352774 -0.896569 -0.267795
0.242543 -0.932297 -0.26832
0.142419 -0.958692 -0.246225
0.0549169 -0.977207 -0.205064
-0.0192746 -0.988654 -0.148972
-0.0810955 -0.993321 -0.0820781
-0.132727 -0.99112 -0.00808026
-0.177118 -0.9817 0.0699571
-0.217518 -0.964522 0.149608
-0.257036 -0.938893 0.228939
-0.29827 -0.904005 0.306283
-0.342978 -0.859045 0.38001
-0.391824 -0.803383 0.448385
-0.444239 -0.736871 0.509581
-0.498494 -0.660132 0.561898
-0.552047 -0.574711 0.604112
-0.602101 -0.482938 0.635803
-0.646193 -0.387532 0.657459
-0.682601 -0.291107 0.670308
-0.710466 -0.195821 0.675938
-0.729697 -0.103276 0.675927
-0.740776 -0.0146126 0.671593
-0.744594 0.0693269 0.663908
-0.742324 0.14787 0.65352
-0.735341 0.220477 0.64083
-0.725138 0.286784 0.626043
-0.713232 0.346681 0.60919
-0.70105 0.40038 0.590105
-0.689799 0.448467 0.568379
-0.680331 0.491902 0.543306
-0.672998 0.532028 0.513829
-0.667432 0.570599 0.478489
-0.662119 0.609947 0.435388
-0.653374 0.653374 0.382368
-0.633176 0.705898 0.317485
-0.586067 0.775518 0.234727
0.166565 0.699321 0.69513
0.276944 0.644279 0.712886
0.427096 0.560478 0.709545
0.585193 0.44529 0.677692
0.728284 0.302408 0.61494
0.839619 0.140857 0.524594
0.909889 -0.0276489 0.41393
0.937037 -0.192082 0.291662
0.924043 -0.344273 0.166194
0.876477 -0.479335 0.0450159
0.800965 -0.595145 -0.065257
0.704567 -0.691632 -0.158842
0.594558 -0.770144 -0.231039
0.478186 -0.832869 -0.278687
0.362227 -0.882301 -0.300561
0.252414 -0.920761 -0.297466
0.152908 -0.950084 -0.271955
0.0659865 -0.97148 -0.227755
-0.00798626 -0.985567 -0.169095
-0.0703051 -0.992491 -0.100093
-0.123491 -0.992047 -0.0243571
-0.170774 -0.983764 0.0551865
-0.215582 -0.966934 0.136246
-0.26106 -0.940624 0.216964
-0.30964 -0.903725 0.295641
-0.362638 -0.855124 0.370482
-0.419955 -0.794036 0.439482
-0.479984 -0.720467 0.500542
-0.539883 -0.635601 0.551849
-0.596222 -0.541872 0.592363
-0.64582 -0.442559 0.62214
-0.686407 -0.341091 0.642264
-0.716877 -0.240405 0.654441
-0.737167 -0.142651 0.660481
-0.747961 -0.0492499 0.661913
-0.750411 0.03888 0.659827
-0.745955 0.121099 0.654894
-0.736209 0.196932 0.647468
-0.722879 0.266067 0.637695
-0.707675 0.328413 0.625572
-0.692196 0.384176 0.610961
-0.677806 0.433906 0.593552
-0.665513 0.478506 0.572822
-0.655841 0.519222 0.547979
-0.648681 0.557638 0.517931
-0.643013 0.595757 0.481257
-0.636252 0.636252 0.43631
-0.622786 0.683051 0.381548
-0.591284 0.742684 0.31433
-0.519732 0.826367 0.216784
0.0764242 0.75466 0.65165
0.140133 0.725817 0.673463
0.278929 0.670721 0.687264
0.44529 0.585193 0.677692
0.611766 0.466957 0.638509
0.756842 0.321246 0.569203
0.865904 0.158518 0.474429
0.932203 -0.00923906 0.361817
0.955556 -0.171739 0.239623
0.939727 -0.321826 0.1155
0.89028 -0.455398 -0.00366194
0.813514 -0.570751 -0.111531
0.716191 -0.667925 -0.202353
0.605464 -0.748179 -0.271368
0.488604 -0.813499 -0.315413
0.372453 -0.866104 -0.333381
0.262745 -0.908018 -0.326294
0.163516 -0.940788 -0.296953
0.0767867 -0.965379 -0.249292
0.00257306 -0.982233 -0.187646
-0.0608002 -0.991371 -0.116135
-0.116208 -0.992487 -0.0382817
-0.167159 -0.984987 0.0431173
-0.217236 -0.967968 0.125884
-0.269553 -0.940209 0.208202
-0.326232 -0.900257 0.288288
-0.387922 -0.846716 0.364128
-0.453474 -0.778786 0.43342
-0.520008 -0.696921 0.493856
-0.583529 -0.603236 0.543692
-0.639988 -0.501316 0.582321
-0.686307 -0.395394 0.610447
-0.7209 -0.289364 0.62974
-0.743592 -0.186156 0.642197
-0.755215 -0.087657 0.64959
-0.757184 0.0050274 0.653182
-0.751223 0.0912401 0.653711
-0.739211 0.170559 0.651519
-0.723094 0.242729 0.646697
-0.704798 0.307699 0.639203
-0.686119 0.365687 0.628899
-0.6686 0.417229 0.615543
-0.653411 0.463198 0.59875
-0.64124 0.504772 0.577942
-0.632175 0.543417 0.552316
-0.625532 0.580905 0.520826
-0.61945 0.61945 0.482247
-0.609947 0.662119 0.435388
-0.588995 0.713756 0.378995
-0.541178 0.782754 0.307282
0.0140556 0.783228 0.621576
0.126693 0.753594 0.645015
0.287877 0.699134 0.654476
0.466957 0.611766 0.638509
0.63877 0.490734 0.592582
0.783567 0.343157 0.517944
0.889283 0.180523 0.420223
0.951603 0.0145584 0.306986
0.971762 -0.145458 0.185798
0.953873 -0.293408 0.0635521
0.903207 -0.42588 -0.0533315
0.825622 -0.541464 -0.158637
0.727588 -0.640193 -0.246512
0.616194 -0.72313 -0.31207
0.498805 -0.791954 -0.35214
0.38237 -0.848533 -0.365766
0.272635 -0.894533 -0.354233
0.173487 -0.931182 -0.320628
0.086655 -0.959204 -0.269108
0.0117774 -0.978874 -0.204124
-0.0532223 -0.990112 -0.129793
-0.111578 -0.99252 -0.0495502
-0.167064 -0.985362 0.0339309
-0.223364 -0.967497 0.118569
-0.283445 -0.937353 0.202552
-0.34891 -0.893099 0.283963
-0.419426 -0.833131 0.36052
-0.492467 -0.756892 0.429641
-0.563715 -0.665703 0.488943
-0.628212 -0.563002 0.537008
-0.681807 -0.453639 0.57389
-0.722121 -0.342567 0.60099
-0.748656 -0.233748 0.620384
-0.762301 -0.129772 0.63408
-0.764725 -0.0320953 0.643557
-0.757959 0.0585265 0.649672
-0.744175 0.141692 0.652784
-0.725589 0.217202 0.65295
-0.704372 0.285051 0.650082
-0.682547 0.345485 0.644027
-0.661861 0.399048 0.634588
-0.643667 0.446599 0.621484
-0.628816 0.489282 0.604313
-0.61757 0.528485 0.582504
-0.609486 0.56582 0.555315
-0.603184 0.603184 0.52186
-0.595757 0.643013 0.481257
-0.581469 0.688916 0.432768
-0.549133 0.747053 0.374653
-0.477071 0.829748 0.289692
-0.0818959 0.816912 0.570918
-0.0186974 0.808552 0.588128
0.123601 0.782377 0.610418
0.302408 0.728284 0.61494
0.490734 0.63877 0.592582
0.664904 0.515348 0.540665
0.807421 0.366981 0.461949
0.908964 0.205683 0.362601
0.967366 0.0424798 0.249796
0.984838 -0.114528 0.130298
0.965484 -0.260257 0.0103233
0.914102 -0.391915 -0.104021
0.836056 -0.508301 -0.206498
0.737548 -0.609343 -0.291075
0.625651 -0.695803 -0.35273
0.507853 -0.768956 -0.38832
0.391218 -0.830221 -0.397091
0.281467 -0.880846 -0.380641
0.182301 -0.921711 -0.342368
0.0951157 -0.953299 -0.286662
0.0191432 -0.975743 -0.21808
-0.048105 -0.988878 -0.140731
-0.110217 -0.992216 -0.0579551
-0.171196 -0.984848 0.0276975
-0.234745 -0.965322 0.114228
-0.303503 -0.931648 0.199797
-0.378247 -0.881609 0.282302
-0.457265 -0.813576 0.35917
-0.536346 -0.727653 0.427614
-0.609779 -0.626541 0.485403
-0.672135 -0.515281 0.531714
-0.719868 -0.399832 0.567384
-0.75184 -0.285412 0.594371
-0.76884 -0.175617 0.614852
-0.772759 -0.0724709 0.630548
-0.765957 0.0230453 0.642479
-0.750937 0.110499 0.651063
-0.73022 0.189729 0.65634
-0.706254 0.26078 0.658178
-0.681322 0.323935 0.656404
-0.657406 0.379762 0.650844
-0.636067 0.429127 0.641302
-0.618338 0.473161 0.627516
-0.604644 0.513208 0.609117
-0.594734 0.550779 0.585606
-0.587555 0.587555 0.55638
-0.580905 0.625532 0.520826
-0.570599 0.667432 0.478489
-0.548656 0.717569 0.429035
-0.50013 0.783872 0.367987
-0.148196 0.838271 0.524728
-0.0367279 0.834111 0.550372
0.128788 0.811411 0.57011
0.321246 0.756842 0.569203
0.515348 0.664904 0.540665
0.689086 0.539679 0.483639
0.827622 0.391668 0.402042
0.924365 0.232891 0.302178
0.978923 0.0733472 0.190605
0.994084 -0.080154 0.073296
0.973696 -0.223548 -0.0440739
0.921981 -0.354616 -0.155561
0.843805 -0.472297 -0.254811
0.745129 -0.576336 -0.335588
0.633029 -0.667089 -0.392768
0.515107 -0.745309 -0.423295
0.398497 -0.811875 -0.426684
0.288844 -0.86755 -0.404877
0.189606 -0.912849 -0.361603
0.101813 -0.948022 -0.301478
0.0242691 -0.973087 -0.229156
-0.045926 -0.987812 -0.148724
-0.112695 -0.991604 -0.0634108
-0.180215 -0.983326 0.0243611
-0.252071 -0.961127 0.112671
-0.330306 -0.922524 0.199619
-0.414452 -0.864991 0.28288
-0.500976 -0.787215 0.359604
-0.583821 -0.690549 0.426962
-0.656259 -0.579559 0.483151
-0.713187 -0.460901 0.528143
-0.752385 -0.341176 0.563485
-0.774277 -0.225311 0.591379
-0.780893 -0.116206 0.613761
-0.77494 -0.0152504 0.63185
-0.759302 0.0770045 0.646166
-0.736845 0.160408 0.656756
-0.710336 0.235048 0.663457
-0.682349 0.301254 0.666067
-0.655138 0.359628 0.664426
-0.630504 0.411058 0.658404
-0.609682 0.456686 0.647862
-0.593272 0.497839 0.632602
-0.58119 0.535969 0.612336
-0.572618 0.572618 0.5867
-0.56582 0.609486 0.555315
-0.557638 0.648681 0.517931
-0.542286 0.693294 0.474626
-0.508899 0.748669 0.424873
-0.437127 0.827461 0.352461
-0.245599 0.847422 0.470699
-0.18345 0.85712 0.481342
-0.0428694 0.859954 0.508568
0.140857 0.839619 0.524594
0.343157 0.783567 0.517944
0.539679 0.689086 0.483639
0.710487 0.562806 0.422442
0.84365 0.416306 0.339035
0.935107 0.261151 0.23953
0.985854 0.106066 0.129772
0.998941 -0.0434839 0.0150367
0.977806 -0.18444 -0.0993891
0.926066 -0.31512 -0.207606
0.848112 -0.434555 -0.303097
0.749674 -0.542222 -0.379452
0.637813 -0.637961 -0.43151
0.520188 -0.721888 -0.456379
0.403929 -0.794245 -0.45389
0.294533 -0.855258 -0.426362
0.195167 -0.905063 -0.377851
0.106463 -0.943703 -0.313194
0.0267948 -0.971109 -0.237127
-0.0471408 -0.986994 -0.15369
-0.119567 -0.990631 -0.065982
-0.194746 -0.980567 0.0237268
-0.275938 -0.95444 0.113593
-0.364198 -0.909233 0.20163
-0.457282 -0.842326 0.285271
-0.549448 -0.753289 0.361472
-0.63295 -0.645399 0.427592
-0.700838 -0.525362 0.482516
-0.74926 -0.401064 0.527027
-0.777845 -0.279072 0.563095
-0.788588 -0.163544 0.592776
-0.78454 -0.0565499 0.617494
-0.769018 0.0411002 0.637904
-0.745297 0.12921 0.654093
-0.716506 0.2079 0.66588
-0.685554 0.277544 0.673042
-0.655001 0.338792 0.675421
-0.626925 0.39257 0.672945
-0.602793 0.440046 0.665583
-0.583396 0.482557 0.65329
-0.568816 0.521528 0.635969
-0.558418 0.558418 0.613465
-0.550779 0.594734 0.585606
-0.543417 0.632175 0.552316
-0.532028 0.672998 0.513829
-0.508801 0.720752 0.470784
-0.459683 0.7825 0.419981
-0.309982 0.856878 0.411912
-0.202821 0.876489 0.436614
-0.0393301 0.885503 0.462967
0.158518 0.865904 0.474429
0.366981 0.807421 0.461949
0.562806 0.710487 0.422442
0.728539 0.584013 0.357994
0.85521 0.440134 0.273675
0.940988 0.289571 0.175187
0.987891 0.139615 0.067671
0.999009 -0.00563686 -0.044154
0.977309 -0.144107 -0.155243
0.925828 -0.27462 -0.259667
0.848502 -0.396249 -0.350757
0.750823 -0.508119 -0.421995
0.639767 -0.609444 -0.468269
0.522957 -0.699589 -0.486921
0.407417 -0.778072 -0.478137
0.298427 -0.844542 -0.444624
0.198818 -0.898763 -0.390764
0.108817 -0.940601 -0.321603
0.0263719 -0.969934 -0.241936
-0.0522054 -0.98642 -0.155727
-0.131389 -0.989138 -0.0658992
-0.215385 -0.976197 0.0254628
-0.306812 -0.944601 0.116601
-0.405193 -0.890853 0.205426
-0.505926 -0.81267 0.289147
-0.600902 -0.711288 0.364674
-0.681325 -0.592502 0.429812
-0.741131 -0.465007 0.484246
-0.778525 -0.337175 0.52935
-0.79513 -0.214861 0.567101
-0.794274 -0.101197 0.599072
-0.779766 0.00252703 0.626066
-0.755364 0.0959731 0.64824
-0.724629 0.17926 0.665416
-0.690855 0.252807 0.677354
-0.656951 0.317314 0.683906
-0.625305 0.373762 0.685051
-0.597654 0.423366 0.68086
-0.575004 0.467489 0.671434
-0.55761 0.507561 0.656851
-0.544998 0.544998 0.637145
-0.535969 0.58119 0.612336
-0.528485 0.61757 0.582504
-0.519222 0.655841 0.547979
-0.502456 0.698448 0.509615
-0.467895 0.749713 0.467979
-0.397172 0.822203 0.407721
-0.404064 0.841449 0.358743
-0.34367 0.866633 0.361717
-0.209242 0.896649 0.390177
-0.0276489 0.909889 0.41393
0.180523 0.889283 0.420223
0.391668 0.827622 0.402042
0.584013 0.728539 0.357994
0.742895 0.602781 0.291139
0.862191 0.46253 0.206622
0.941948 0.317356 0.10963
0.984906 0.173027 0.00469487
0.994067 0.0322854 -0.103868
0.971934 -0.103741 -0.211145
0.921013 -0.234345 -0.311155
0.844808 -0.358591 -0.397131
0.748514 -0.475167 -0.46254
0.638915 -0.582557 -0.502409
0.523469 -0.679271 -0.514365
0.408993 -0.764034 -0.498976
0.300486 -0.835892 -0.45934
0.200424 -0.894259 -0.400165
0.108631 -0.938869 -0.326686
0.0226414 -0.969579 -0.243729
-0.0615952 -0.985973 -0.155122
-0.148727 -0.986834 -0.0635546
-0.242683 -0.969668 0.0291273
-0.344956 -0.930752 0.121272
-0.452855 -0.866333 0.210689
-0.558919 -0.775197 0.294414
-0.65298 -0.661126 0.3695
-0.726348 -0.532674 0.43437
-0.774993 -0.399854 0.48939
-0.799582 -0.27063 0.536122
-0.803524 -0.149691 0.576144
-0.791145 -0.0391363 0.610375
-0.76679 0.060386 0.639051
-0.734544 0.148929 0.662017
-0.698153 0.226936 0.67903
-0.660932 0.295167 0.68996
-0.625623 0.354667 0.694843
-0.594264 0.406715 0.693853
-0.568106 0.452726 0.687237
-0.547593 0.494154 0.675244
-0.532409 0.532409 0.658089
-0.521528 0.568816 0.635969
-0.513208 0.604644 0.609117
-0.504772 0.64124 0.577942
-0.491902 0.680331 0.543306
-0.467137 0.724597 0.506697
-0.417675 0.780016 0.465964
-0.461708 0.837571 0.292062
-0.361231 0.878379 0.312991
-0.205092 0.9171 0.341856
-0.00923906 0.932203 0.361817