# vtk DataFile Version 2.0
tmp/0.000.00-10.000.000.001.0068.vtk
ASCII
DATASET UNSTRUCTURED_GRID
POINTS 5101 float
0 0 0
1 0 0
2 0 0
3 0 0
4 0 0
5 0 0
6 0 0
7 0 0
8 0 0
9 0 0
10 0 0
11 0 0
12 0 0
13 0 0
14 0 0
15 0 0
16 0 0
17 0 0
18 0 0
19 0 0
20 0 0
21 0 0
22 0 0
23 0 0
24 0 0
25 0 0
26 0 0
27 0 0
28 0 0
29 0 0
30 0 0
31 0 0
32 0 0
33 0 0
34 0 0
35 0 0
36 0 0
37 0 0
38 0 0
39 0 0
40 0 0
41 0 0
42 0 0
43 0 0
44 0 0
45 0 0
46 0 0
47 0 0
48 0 0
49 0 0
50 0 0
0.5 0.5 0
1.5 0.5 0
2.5 0.5 0
3.5 0.5 0
4.5 0.5 0
5.5 0.5 0
6.5 0.5 0
7.5 0.5 0
8.5 0.5 0
9.5 0.5 0
10.5 0.5 0
11.5 0.5 0
12.5 0.5 0
13.5 0.5 0
14.5 0.5 0
15.5 0.5 0
16.5 0.5 0
17.5 0.5 0
18.5 0.5 0
19.5 0.5 0
20.5 0.5 0
21.5 0.5 0
22.5 0.5 0
23.5 0.5 0
24.5 0.5 0
25.5 0.5 0
26.5 0.5 0
27.5 0.5 0
28.5 0.5 0
29.5 0.5 0
30.5 0.5 0
31.5 0.5 0
32.5 0.5 0
33.5 0.5 0
34.5 0.5 0
35.5 0.5 0
36.5 0.5 0
37.5 0.5 0
38.5 0.5 0
39.5 0.5 0
40.5 0.5 0
41.5 0.5 0
42.5 0.5 0
43.5 0.5 0
44.5 0.5 0
45.5 0.5 0
46.5 0.5 0
47.5 0.5 0
48.5 0.5 0
49.5 0.5 0
0 1 0
1 1 0
2 1 0
3 1 0
4 1 0
5 1 0
6 1 0
7 1 0
8 1 0
9 1 0
10 1 0
11 1 0
12 1 0
13 1 0
14 1 0
15 1 0
16 1 0
17 1 0
18 1 0
19 1 0
20 1 0
21 1 0
22 1 0
23 1 0
24 1 0
25 1 0
26 1 0
27 1 0
28 1 0
29 1 0
30 1 0
31 1 0
32 1 0
33 1 0
34 1 0
35 1 0
36 1 0
37 1 0
38 1 0
39 1 0
40 1 0
41 1 0
42 1 0
43 1 0
44 1 0
45 1 0
46 1 0
47 1 0
48 1 0
49 1 0
50 1 0
0.5 1.5 0
1.5 1.5 0
2.5 1.5 0
3.5 1.5 0
4.5 1.5 0
5.5 1.5 0
6.5 1.5 0
7.5 1.5 0
8.5 1.5 0
9.5 1.5 0
10.5 1.5 0
11.5 1.5 0
12.5 1.5 0
13.5 1.5 0
14.5 1.5 0
15.5 1.5 0
16.5 1.5 0
17.5 1.5 0
18.5 1.5 0
19.5 1.5 0
20.5 1.5 0
21.5 1.5 0
22.5 1.5 0
23.5 1.5 0
24.5 1.5 0
25.5 1.5 0
26.5 1.5 0
27.5 1.5 0
28.5 1.5 0
29.5 1.5 0
30.5 1.5 0
31.5 1.5 0
32.5 1.5 0
33.5 1.5 0
34.5 1.5 0
35.5 1.5 0
36.5 1.5 0
37.5 1.5 0
38.5 1.5 0
39.5 1.5 0
40.5 1.5 0
41.5 1.5 0
42.5 1.5 0
43.5 1.5 0
44.5 1.5 0
45.5 1.5 0
46.5 1.5 0
47.5 1.5 0
48.5 1.5 0
49.5 1.5 0
0 2 0
1 2 0
2 2 0
3 2 0
4 2 0
5 2 0
6 2 0
7 2 0
8 2 0
9 2 0
10 2 0
11 2 0
12 2 0
13 2 0
14 2 0
15 2 0
16 2 0
17 2 0
18 2 0
19 2 0
20 2 0
21 2 0
22 2 0
23 2 0
24 2 0
25 2 0
26 2 0
27 2 0
28 2 0
29 2 0
30 2 0
31 2 0
32 2 0
33 2 0
34 2 0
35 2 0
36 2 0
37 2 0
38 2 0
39 2 0
40 2 0
41 2 0
42 2 0
43 2 0
44 2 0
45 2 0
46 2 0
47 2 0
48 2 0
49 2 0
50 2 0
0.5 2.5 0
1.5 2.5 0
2.5 2.5 0
3.5 2.5 0
4.5 2.5 0
5.5 2.5 0
6.5 2.5 0
7.5 2.5 0
8.5 2.5 0
9.5 2.5 0
10.5 2.5 0
11.5 2.5 0
12.5 2.5 0
13.5 2.5 0
14.5 2.5 0
15.5 2.5 0
16.5 2.5 0
17.5 2.5 0
18.5 2.5 0
19.5 2.5 0
20.5 2.5 0
21.5 2.5 0
22.5 2.5 0
23.5 2.5 0
24.5 2.5 0
25.5 2.5 0
26.5 2.5 0
27.5 2.5 0
28.5 2.5 0
29.5 2.5 0
30.5 2.5 0
31.5 2.5 0
32.5 2.5 0
33.5 2.5 0
34.5 2.5 0
35.5 2.5 0
36.5 2.5 0
37.5 2.5 0
38.5 2.5 0
39.5 2.5 0
40.5 2.5 0
41.5 2.5 0
42.5 2.5 0
43.5 2.5 0
44.5 2.5 0
45.5 2.5 0
46.5 2.5 0
47.5 2.5 0
48.5 2.5 0
49.5 2.5 0
0 3 0
1 3 0
2 3 0
3 3 0
4 3 0
5 3 0
6 3 0
7 3 0
8 3 0
9 3 0
10 3 0
11 3 0
12 3 0
13 3 0
14 3 0
15 3 0
16 3 0
17 3 0
18 3 0
19 3 0
20 3 0
21 3 0
22 3 0
23 3 0
24 3 0
25 3 0
26 3 0
27 3 0
28 3 0
29 3 0
30 3 0
31 3 0
32 3 0
33 3 0
34 3 0
35 3 0
36 3 0
37 3 0
38 3 0
39 3 0
40 3 0
41 3 0
42 3 0
43 3 0
44 3 0
45 3 0
46 3 0
47 3 0
48 3 0
49 3 0
50 3 0
0.5 3.5 0
1.5 3.5 0
2.5 3.5 0
3.5 3.5 0
4.5 3.5 0
5.5 3.5 0
6.5 3.5 0
7.5 3.5 0
8.5 3.5 0
9.5 3.5 0
10.5 3.5 0
11.5 3.5 0
12.5 3.5 0
13.5 3.5 0
14.5 3.5 0
15.5 3.5 0
16.5 3.5 0
17.5 3.5 0
18.5 3.5 0
19.5 3.5 0
20.5 3.5 0
21.5 3.5 0
22.5 3.5 0
23.5 3.5 0
24.5 3.5 0
25.5 3.5 0
26.5 3.5 0
27.5 3.5 0
28.5 3.5 0
29.5 3.5 0
30.5 3.5 0
31.5 3.5 0
32.5 3.5 0
33.5 3.5 0
34.5 3.5 0
35.5 3.5 0
36.5 3.5 0
37.5 3.5 0
38.5 3.5 0
39.5 3.5 0
40.5 3.5 0
41.5 3.5 0
42.5 3.5 0
43.5 3.5 0
44.5 3.5 0
45.5 3.5 0
46.5 3.5 0
47.5 3.5 0
48.5 3.5 0
49.5 3.5 0
0 4 0
1 4 0
2 4 0
3 4 0
4 4 0
5 4 0
6 4 0
7 4 0
8 4 0
9 4 0
10 4 0
11 4 0
12 4 0
13 4 0
14 4 0
15 4 0
16 4 0
17 4 0
18 4 0
19 4 0
20 4 0
21 4 0
22 4 0
23 4 0
24 4 0
25 4 0
26 4 0
27 4 0
28 4 0
29 4 0
30 4 0
31 4 0
32 4 0
33 4 0
34 4 0
35 4 0
36 4 0
37 4 0
38 4 0
39 4 0
40 4 0
41 4 0
42 4 0
43 4 0
44 4 0
45 4 0
46 4 0
47 4 0
48 4 0
49 4 0
50 4 0
0.5 4.5 0
1.5 4.5 0
2.5 4.5 0
3.5 4.5 0
4.5 4.5 0
5.5 4.5 0
6.5 4.5 0
7.5 4.5 0
8.5 4.5 0
9.5 4.5 0
10.5 4.5 0
11.5 4.5 0
12.5 4.5 0
13.5 4.5 0
14.5 4.5 0
15.5 4.5 0
16.5 4.5 0
17.5 4.5 0
18.5 4.5 0
19.5 4.5 0
20.5 4.5 0
21.5 4.5 0
22.5 4.5 0
23.5 4.5 0
24.5 4.5 0
25.5 4.5 0
26.5 4.5 0
27.5 4.5 0
28.5 4.5 0
29.5 4.5 0
30.5 4.5 0
31.5 4.5 0
32.5 4.5 0
33.5 4.5 0
34.5 4.5 0
35.5 4.5 0
36.5 4.5 0
37.5 4.5 0
38.5 4.5 0
39.5 4.5 0
40.5 4.5 0
41.5 4.5 0
42.5 4.5 0
43.5 4.5 0
44.5 4.5 0
45.5 4.5 0
46.5 4.5 0
47.5 4.5 0
48.5 4.5 0
49.5 4.5 0
0 5 0
1 5 0
2 5 0
3 5 0
4 5 0
5 5 0
6 5 0
7 5 0
8 5 0
9 5 0
10 5 0
11 5 0
12 5 0
13 5 0
14 5 0
15 5 0
16 5 0
17 5 0
18 5 0
19 5 0
20 5 0
21 5 0
22 5 0
23 5 0
24 5 0
25 5 0
26 5 0
27 5 0
28 5 0
29 5 0
30 5 0
31 5 0
32 5 0
33 5 0
34 5 0
35 5 0
36 5 0
37 5 0
38 5 0
39 5 0
40 5 0
41 5 0
42 5 0
43 5 0
44 5 0
45 5 0
46 5 0
47 5 0
48 5 0
49 5 0
50 5 0
0.5 5.5 0
1.5 5.5 0
2.5 5.5 0
3.5 5.5 0
4.5 5.5 0
5.5 5.5 0
6.5 5.5 0
7.5 5.5 0
8.5 5.5 0
9.5 5.5 0
10.5 5.5 0
11.5 5.5 0
12.5 5.5 0
13.5 5.5 0
14.5 5.5 0
15.5 5.5 0
16.5 5.5 0
17.5 5.5 0
18.5 5.5 0
19.5 5.5 0
20.5 5.5 0
21.5 5.5 0
22.5 5.5 0
23.5 5.5 0
24.5 5.5 0
25.5 5.5 0
26.5 5.5 0
27.5 5.5 0
28.5 5.5 0
29.5 5.5 0
30.5 5.5 0
31.5 5.5 0
32.5 5.5 0
33.5 5.5 0
34.5 5.5 0
35.5 5.5 0
36.5 5.5 0
37.5 5.5 0
38.5 5.5 0
39.5 5.5 0
40.5 5.5 0
41.5 5.5 0
42.5 5.5 0
43.5 5.5 0
44.5 5.5 0
45.5 5.5 0
46.5 5.5 0
47.5 5.5 0
48.5 5.5 0
49.5 5.5 0
0 6 0
1 6 0
2 6 0
3 6 0
4 6 0
5 6 0
6 6 0
7 6 0
8 6 0
9 6 0
10 6 0
11 6 0
12 6 0
13 6 0
14 6 0
15 6 0
16 6 0
17 6 0
18 6 0
19 6 0
20 6 0
21 6 0
22 6 0
23 6 0
24 6 0
25 6 0
26 6 0
27 6 0
28 6 0
29 6 0
30 6 0
31 6 0
32 6 0
33 6 0
34 6 0
35 6 0
36 6 0
37 6 0
38 6 0
39 6 0
40 6 0
41 6 0
42 6 0
43 6 0
44 6 0
45 6 0
46 6 0
47 6 0
48 6 0
49 6 0
50 6 0
0.5 6.5 0
1.5 6.5 0
2.5 6.5 0
3.5 6.5 0
4.5 6.5 0
5.5 6.5 0
6.5 6.5 0
7.5 6.5 0
8.5 6.5 0
9.5 6.5 0
10.5 6.5 0
11.5 6.5 0
12.5 6.5 0
13.5 6.5 0
14.5 6.5 0
15.5 6.5 0
16.5 6.5 0
17.5 6.5 0
18.5 6.5 0
19.5 6.5 0
20.5 6.5 0
21.5 6.5 0
22.5 6.5 0
23.5 6.5 0
24.5 6.5 0
25.5 6.5 0
26.5 6.5 0
27.5 6.5 0
28.5 6.5 0
29.5 6.5 0
30.5 6.5 0
31.5 6.5 0
32.5 6.5 0
33.5 6.5 0
34.5 6.5 0
35.5 6.5 0
36.5 6.5 0
37.5 6.5 0
38.5 6.5 0
39.5 6.5 0
40.5 6.5 0
41.5 6.5 0
42.5 6.5 0
43.5 6.5 0
44.5 6.5 0
45.5 6.5 0
46.5 6.5 0
47.5 6.5 0
48.5 6.5 0
49.5 6.5 0
0 7 0
1 7 0
2 7 0
3 7 0
4 7 0
5 7 0
6 7 0
7 7 0
8 7 0
9 7 0
10 7 0
11 7 0
12 7 0
13 7 0
14 7 0
15 7 0
16 7 0
17 7 0
18 7 0
19 7 0
20 7 0
21 7 0
22 7 0
23 7 0
24 7 0
25 7 0
26 7 0
27 7 0
28 7 0
29 7 0
30 7 0
31 7 0
32 7 0
33 7 0
34 7 0
35 7 0
36 7 0
37 7 0
38 7 0
39 7 0
40 7 0
41 7 0
42 7 0
43 7 0
44 7 0
45 7 0
46 7 0
47 7 0
48 7 0
49 7 0
50 7 0
0.5 7.5 0
1.5 7.5 0
2.5 7.5 0
3.5 7.5 0
4.5 7.5 0
5.5 7.5 0
6.5 7.5 0
7.5 7.5 0
8.5 7.5 0
9.5 7.5 0
10.5 7.5 0
11.5 7.5 0
12.5 7.5 0
13.5 7.5 0
14.5 7.5 0
15.5 7.5 0
16.5 7.5 0
17.5 7.5 0
18.5 7.5 0
19.5 7.5 0
20.5 7.5 0
21.5 7.5 0
22.5 7.5 0
23.5 7.5 0
24.5 7.5 0
25.5 7.5 0
26.5 7.5 0
27.5 7.5 0
28.5 7.5 0
29.5 7.5 0
30.5 7.5 0
31.5 7.5 0
32.5 7.5 0
33.5 7.5 0
34.5 7.5 0
35.5 7.5 0
36.5 7.5 0
37.5 7.5 0
38.5 7.5 0
39.5 7.5 0
40.5 7.5 0
41.5 7.5 0
42.5 7.5 0
43.5 7.5 0
44.5 7.5 0
45.5 7.5 0
46.5 7.5 0
47.5 7.5 0
48.5 7.5 0
49.5 7.5 0
0 8 0
1 8 0
2 8 0
3 8 0
4 8 0
5 8 0
6 8 0
7 8 0
8 8 0
9 8 0
10 8 0
11 8 0
12 8 0
13 8 0
14 8 0
15 8 0
16 8 0
17 8 0
18 8 0
19 8 0
20 8 0
21 8 0
22 8 0
23 8 0
24 8 0
25 8 0
26 8 0
27 8 0
28 8 0
29 8 0
30 8 0
31 8 0
32 8 0
33 8 0
34 8 0
35 8 0
36 8 0
37 8 0
38 8 0
39 8 0
40 8 0
41 8 0
42 8 0
43 8 0
44 8 0
45 8 0
46 8 0
47 8 0
48 8 0
49 8 0
50 8 0
0.5 8.5 0
1.5 8.5 0
2.5 8.5 0
3.5 8.5 0
4.5 8.5 0
5.5 8.5 0
6.5 8.5 0
7.5 8.5 0
8.5 8.5 0
9.5 8.5 0
10.5 8.5 0
11.5 8.5 0
12.5 8.5 0
13.5 8.5 0
14.5 8.5 0
15.5 8.5 0
16.5 8.5 0
17.5 8.5 0
18.5 8.5 0
19.5 8.5 0
20.5 8.5 0
21.5 8.5 0
22.5 8.5 0
23.5 8.5 0
24.5 8.5 0
25.5 8.5 0
26.5 8.5 0
27.5 8.5 0
28.5 8.5 0
29.5 8.5 0
30.5 8.5 0
31.5 8.5 0
32.5 8.5 0
33.5 8.5 0
34.5 8.5 0
35.5 8.5 0
36.5 8.5 0
37.5 8.5 0
38.5 8.5 0
39.5 8.5 0
40.5 8.5 0
41.5 8.5 0
42.5 8.5 0
43.5 8.5 0
44.5 8.5 0
45.5 8.5 0
46.5 8.5 0
47.5 8.5 0
48.5 8.5 0
49.5 8.5 0
0 9 0
1 9 0
2 9 0
3 9 0
4 9 0
5 9 0
6 9 0
7 9 0
8 9 0
9 9 0
10 9 0
11 9 0
12 9 0
13 9 0
14 9 0
15 9 0
16 9 0
17 9 0
18 9 0
19 9 0
20 9 0
21 9 0
22 9 0
23 9 0
24 9 0
25 9 0
26 9 0
27 9 0
28 9 0
29 9 0
30 9 0
31 9 0
32 9 0
33 9 0
34 9 0
35 9 0
36 9 0
37 9 0
38 9 0
39 9 0
40 9 0
41 9 0
42 9 0
43 9 0
44 9 0
45 9 0
46 9 0
47 9 0
48 9 0
49 9 0
50 9 0
0.5 9.5 0
1.5 9.5 0
2.5 9.5 0
3.5 9.5 0
4.5 9.5 0
5.5 9.5 0
6.5 9.5 0
7.5 9.5 0
8.5 9.5 0
9.5 9.5 0
10.5 9.5 0
11.5 9.5 0
12.5 9.5 0
13.5 9.5 0
14.5 9.5 0
15.5 9.5 0
16.5 9.5 0
17.5 9.5 0
18.5 9.5 0
19.5 9.5 0
20.5 9.5 0
21.5 9.5 0
22.5 9.5 0
23.5 9.5 0
24.5 9.5 0
25.5 9.5 0
26.5 9.5 0
27.5 9.5 0
28.5 9.5 0
29.5 9.5 0
30.5 9.5 0
31.5 9.5 0
32.5 9.5 0
33.5 9.5 0
34.5 9.5 0
35.5 9.5 0
36.5 9.5 0
37.5 9.5 0
38.5 9.5 0
39.5 9.5 0
40.5 9.5 0
41.5 9.5 0
42.5 9.5 0
43.5 9.5 0
44.5 9.5 0
45.5 9.5 0
46.5 9.5 0
47.5 9.5 0
48.5 9.5 0
49.5 9.5 0
0 10 0
1 10 0
2 10 0
3 10 0
4 10 0
5 10 0
6 10 0
7 10 0
8 10 0
9 10 0
10 10 0
11 10 0
12 10 0
13 10 0
14 10 0
15 10 0
16 10 0
17 10 0
18 10 0
19 10 0
20 10 0
21 10 0
22 10 0
23 10 0
24 10 0
25 10 0
26 10 0
27 10 0
28 10 0
29 10 0
30 10 0
31 10 0
32 10 0
33 10 0
34 10 0
35 10 0
36 10 0
37 10 0
38 10 0
39 10 0
40 10 0
41 10 0
42 10 0
43 10 0
44 10 0
45 10 0
46 10 0
47 10 0
48 10 0
49 10 0
50 10 0
0.5 10.5 0
1.5 10.5 0
2.5 10.5 0
3.5 10.5 0
4.5 10.5 0
5.5 10.5 0
6.5 10.5 0
7.5 10.5 0
8.5 10.5 0
9.5 10.5 0
10.5 10.5 0
11.5 10.5 0
12.5 10.5 0
13.5 10.5 0
14.5 10.5 0
15.5 10.5 0
16.5 10.5 0
17.5 10.5 0
18.5 10.5 0
19.5 10.5 0
20.5 10.5 0
21.5 10.5 0
22.5 10.5 0
23.5 10.5 0
24.5 10.5 0
25.5 10.5 0
26.5 10.5 0
27.5 10.5 0
28.5 10.5 0
29.5 10.5 0
30.5 10.5 0
31.5 10.5 0
32.5 10.5 0
33.5 10.5 0
34.5 10.5 0
35.5 10.5 0
36.5 10.5 0
37.5 10.5 0
38.5 10.5 0
39.5 10.5 0
40.5 10.5 0
41.5 10.5 0
42.5 10.5 0
43.5 10.5 0
44.5 10.5 0
45.5 10.5 0
46.5 10.5 0
47.5 10.5 0
48.5 10.5 0
49.5 10.5 0
0 11 0
1 11 0
2 11 0
3 11 0
[...]
POINT_DATA 5101
VECTORS velocity float
0.382567 0.382567 0.841002
0.372245 0.278004 0.885521
0.277597 0.13428 0.951267
0.25394 -0.000209538 0.96722
0.288044 -0.164773 0.943335
0.342911 -0.354951 0.869725
0.384693 -0.539798 0.748752
0.397108 -0.692701 0.602055
0.381094 -0.806055 0.452817
0.344382 -0.884695 0.31419
0.294227 -0.936521 0.190681
0.235329 -0.968401 0.0825869
0.16999 -0.985382 -0.0112354
0.0987183 -0.990843 -0.0921157
0.0208621 -0.986741 -0.160954
-0.064656 -0.973846 -0.217815
-0.158411 -0.952059 -0.261707
-0.259488 -0.920937 -0.290758
-0.364861 -0.880406 -0.302921
-0.469635 -0.831387 -0.297049
-0.568258 -0.775963 -0.273797
-0.656087 -0.716913 -0.235764
-0.730436 -0.656923 -0.186856
-0.790703 -0.597947 -0.131331
-0.837846 -0.540995 -0.0730672
-0.873692 -0.48624 -0.0152294
-0.900387 -0.433272 0.0397392
-0.92004 -0.381353 0.0899815
-0.934544 -0.329628 0.134066
-0.945471 -0.277287 0.170871
-0.954017 -0.223699 0.199525
-0.96097 -0.168505 0.219416
-0.966703 -0.111693 0.230238
-0.971224 -0.0536151 0.232053
-0.974268 0.00503608 0.225338
-0.975438 0.0633022 0.210984
-0.974366 0.120077 0.190245
-0.970845 0.174245 0.164619
-0.964905 0.224815 0.135706
-0.956818 0.271042 0.105052
-0.947024 0.312522 0.0739998
-0.936012 0.349264 0.0435457
-0.924153 0.381758 0.014201
-0.91152 0.411013 -0.0141563
-0.897718 0.438523 -0.0424178
-0.881748 0.466143 -0.0723265
-0.86186 0.495838 -0.106498
-0.835318 0.529317 -0.148551
-0.797781 0.567435 -0.203869
-0.741191 0.60916 -0.282065
-0.649245 0.649245 -0.396186
0.283904 0.283904 0.915858
0.229016 0.126985 0.965105
0.250794 -0.0117922 0.967969
0.324665 -0.170085 0.93041
0.412723 -0.349796 0.841012
0.478109 -0.526394 0.70308
0.502613 -0.675461 0.539567
0.48772 -0.78828 0.375159
0.443255 -0.867819 0.224534
0.379058 -0.920627 0.0935961
0.302609 -0.952978 -0.0161381
0.219179 -0.970025 -0.104938
0.13233 -0.975828 -0.173919
0.0442073 -0.973414 -0.224748
-0.0442742 -0.964756 -0.259394
-0.133163 -0.95078 -0.279794
-0.222991 -0.93146 -0.287503
-0.314105 -0.906074 -0.283492
-0.405971 -0.873637 -0.268228
-0.496767 -0.833445 -0.24206
-0.583531 -0.785596 -0.205746
-0.662913 -0.731215 -0.160844
-0.732162 -0.672236 -0.109716
-0.789833 -0.610835 -0.0551785
-0.835921 -0.54885 -3.04177e-05
-0.871532 -0.487434 0.0532846
-0.89839 -0.426997 0.102805
-0.918387 -0.367359 0.147015
-0.933278 -0.30799 0.184753
-0.944506 -0.248249 0.21513
-0.953102 -0.187597 0.237497
-0.959662 -0.125758 0.251464
-0.964379 -0.0628173 0.256957
-0.967135 0.000743207 0.254264
-0.96764 0.0640875 0.24406
-0.965604 0.126128 0.227378
-0.960879 0.185671 0.20552
-0.953552 0.241579 0.17994
-0.943964 0.292913 0.152098
-0.932649 0.339054 0.123322
-0.920214 0.379795 0.0946658
-0.907182 0.415405 0.0667764
-0.893809 0.446684 0.039746
-0.879916 0.474953 0.0129628
-0.864758 0.501964 -0.0150042
-0.846917 0.529693 -0.0464434
-0.824133 0.560052 -0.0845414
-0.792877 0.594518 -0.13377
-0.7471 0.633549 -0.20114
-0.676297 0.676297 -0.291967
0.278004 0.372245 0.885521
0.167621 0.167621 0.971497
0.202819 0.0413661 0.978342
0.297093 -0.102636 0.949316
0.412782 -0.269822 0.869947
0.509361 -0.442844 0.737862
0.561442 -0.597796 0.572209
0.565723 -0.721707 0.398869
0.531272 -0.813698 0.235895
0.469257 -0.878253 0.0920259
0.38903 -0.920758 -0.0293199
0.297843 -0.94612 -0.127069
0.201322 -0.958601 -0.201377
0.103706 -0.96179 -0.253387
0.00784082 -0.958461 -0.285117
-0.0848408 -0.950423 -0.299162
-0.174155 -0.938458 -0.298273
-0.260762 -0.922397 -0.284933
-0.345564 -0.90134 -0.261098
-0.429033 -0.873991 -0.228188
-0.510681 -0.839115 -0.187327
-0.588913 -0.796028 -0.139721
-0.661394 -0.744977 -0.0869872
-0.725794 -0.687203 -0.0312365
-0.780536 -0.624605 0.0251327
-0.825192 -0.559191 0.0797746
-0.860408 -0.492567 0.130676
-0.887534 -0.425689 0.176271
-0.908191 -0.358868 0.215415
-0.923908 -0.291957 0.247297
-0.935899 -0.224614 0.271369
-0.944955 -0.15654 0.287325
-0.951428 -0.0876832 0.295122
-0.955314 -0.0183496 0.295022
-0.9564 0.0507652 0.287614
-0.95444 0.118638 0.273805
-0.949329 0.184049 0.254755
-0.941215 0.245749 0.231781
-0.930528 0.302628 0.206237
-0.917933 0.353865 0.179386
-0.904202 0.39904 0.152272
-0.890053 0.438215 0.125591
-0.875964 0.471994 0.0995486
-0.861988 0.501542 0.0737094
-0.847622 0.528527 0.04686
-0.83171 0.554951 0.0169489
-0.812318 0.582908 -0.0188965
-0.786422 0.614315 -0.0644752
-0.749094 0.650584 -0.124894
-0.6923 0.6923 -0.203569
-0.60916 0.741191 -0.282065
0.126985 0.229016 0.965105
0.126084 0.126084 0.983974
0.221486 0.00604348 0.975145
0.355495 -0.145568 0.923273
0.486335 -0.31637 0.814486
0.577168 -0.482168 0.659083
0.614309 -0.623605 0.483468
0.603354 -0.734411 0.310813
0.556223 -0.816658 0.153903
0.483961 -0.8749 0.018239
0.395349 -0.913711 -0.0939751
0.297394 -0.93725 -0.181988
0.195746 -0.949273 -0.246098
0.0947066 -0.953039 -0.287659
-0.00293647 -0.951076 -0.308943
-0.0959487 -0.944972 -0.312763
-0.18444 -0.935297 -0.301996
-0.269396 -0.921676 -0.279175
-0.352038 -0.903003 -0.246282
-0.433134 -0.877755 -0.204795
-0.512453 -0.844432 -0.155971
-0.588594 -0.802066 -0.101233
-0.659329 -0.750655 -0.0424656
-0.72235 -0.691295 0.0179597
-0.776055 -0.625891 0.077456
-0.819981 -0.556579 0.133608
-0.854748 -0.48516 0.184459
-0.881671 -0.412789 0.228606
-0.90229 -0.339965 0.265134
-0.917992 -0.266725 0.293511
-0.929782 -0.192923 0.313505
-0.938205 -0.118501 0.325161
-0.943388 -0.0436786 0.328803
-0.945192 0.0309425 0.325044
-0.943409 0.104392 0.314773
-0.937959 0.175431 0.299095
-0.929037 0.242717 0.279248
-0.917162 0.304989 0.256505
-0.903134 0.36124 0.232066
-0.887907 0.410848 0.206944
-0.872414 0.453678 0.18185
-0.85737 0.49015 0.157066
-0.84307 0.521275 0.132306
-0.829244 0.548632 0.106573
-0.814957 0.574239 0.0780726
-0.798527 0.60033 0.0442447
-0.777315 0.629109 0.00181634
-0.747179 0.662494 -0.0531549
-0.701714 0.701714 -0.123267
-0.633549 0.7471 -0.20114
0.13428 0.277597 0.951267
0.0413661 0.202819 0.978342
0.120696 0.120696 0.985325
0.261346 -0.00331039 0.96524
0.422164 -0.162211 0.891889
0.5576 -0.334299 0.759819
0.638277 -0.493903 0.590476
0.661313 -0.62668 0.412233
0.637917 -0.73046 0.243905
0.581005 -0.808432 0.0941835
0.501111 -0.864737 -0.03343
0.406542 -0.903241 -0.137401
0.304136 -0.927542 -0.217181
0.199504 -0.941033 -0.273229
0.0968254 -0.946742 -0.307089
-0.00138937 -0.947018 -0.321177
-0.0942948 -0.943278 -0.318332
-0.182404 -0.935912 -0.301325
-0.267038 -0.924356 -0.272502
-0.349623 -0.907287 -0.233653
-0.430982 -0.882952 -0.186147
-0.510784 -0.849626 -0.131283
-0.587421 -0.806186 -0.0707094
-0.658441 -0.752603 -0.00668518
-0.721399 -0.690085 0.0580086
-0.77471 -0.620735 0.120465
-0.818043 -0.546881 0.178121
-0.852178 -0.470457 0.229047
-0.878527 -0.392694 0.271996
-0.898606 -0.314157 0.306288
-0.913655 -0.234993 0.331681
-0.924447 -0.155246 0.348276
-0.93128 -0.075127 0.356475
-0.934106 0.00481346 0.356963
-0.932757 0.083641 0.350669
-0.92717 0.160104 0.338707
-0.917573 0.232785 0.32229
-0.90456 0.300294 0.302646
-0.889061 0.361458 0.280924
-0.872218 0.415476 0.2581
-0.855193 0.462034 0.234882
-0.838953 0.501382 0.211598
-0.824054 0.534381 0.188075
-0.810464 0.562507 0.163506
-0.797459 0.587765 0.136353
-0.78356 0.61249 0.104354
-0.766415 0.639085 0.0646458
-0.742438 0.669768 0.0139912
-0.706222 0.706222 -0.0499965
-0.650584 0.749094 -0.124894
-0.567435 0.797781 -0.203869
-0.0117922 0.250794 0.967969
0.00604348 0.221486 0.975145
0.138049 0.138049 0.980757
0.31652 0.00728745 0.948558
0.49531 -0.157893 0.854247
0.628509 -0.330192 0.704237
0.697097 -0.485314 0.527756
0.707354 -0.613336 0.351381
0.673655 -0.714415 0.189208
0.608835 -0.79191 0.0468883
0.522746 -0.849335 -0.0732621
0.423306 -0.889894 -0.170001
0.317265 -0.916717 -0.242844
0.210195 -0.93293 -0.292335
0.106114 -0.941416 -0.320117
0.00721626 -0.944426 -0.328645
-0.086053 -0.943272 -0.320676
-0.174591 -0.93821 -0.298799
-0.260003 -0.928498 -0.265121
-0.343843 -0.912595 -0.221228
-0.426864 -0.888499 -0.168395
-0.508477 -0.854274 -0.108011
-0.586697 -0.808715 -0.0420354
-0.658732 -0.751899 0.0268154
-0.721998 -0.685301 0.0952948
-0.775004 -0.611319 0.160181
-0.817668 -0.532484 0.218813
-0.851009 -0.450811 0.269358
-0.876543 -0.367543 0.310782
-0.895721 -0.283282 0.342689
-0.909577 -0.198307 0.365163
-0.918621 -0.112911 0.378663
-0.922938 -0.0276544 0.383953
-0.922416 0.0565346 0.382038
-0.917012 0.138382 0.374084
-0.906979 0.216403 0.361329
-0.892975 0.289096 0.34499
-0.876054 0.355145 0.326191
-0.857541 0.413594 0.305881
-0.838833 0.463974 0.284758
-0.821164 0.506387 0.263179
-0.805365 0.541555 0.241052
-0.791664 0.570843 0.217728
-0.779554 0.596213 0.191898
-0.767738 0.620057 0.16158
-0.754079 0.644926 0.124241
-0.735389 0.673246 0.0770914
-0.706994 0.706994 0.0178699
-0.662494 0.747179 -0.0531549
-0.594518 0.792877 -0.13377
-0.000209538 0.25394 0.96722
-0.102636 0.297093 0.949316
-0.00331039 0.261346 0.96524
0.173655 0.173655 0.969375
0.383343 0.0356248 0.922919
0.571701 -0.134857 0.809303
0.697547 -0.307282 0.647307
0.753599 -0.460099 0.469464
0.752877 -0.586764 0.298135
0.710921 -0.688554 0.143124
0.639796 -0.768503 0.00801598
0.548594 -0.829413 -0.105447
0.444924 -0.873853 -0.196017
0.335521 -0.904541 -0.263117
0.22598 -0.924407 -0.307255
0.120206 -0.936271 -0.330072
0.020129 -0.942365 -0.333982
-0.0741512 -0.943959 -0.321625
-0.163866 -0.941214 -0.295405
-0.250866 -0.93322 -0.257229
-0.336789 -0.9182 -0.208521
-0.422261 -0.89389 -0.150519
-0.506345 -0.858153 -0.0847796
-0.586601 -0.809761 -0.0136478
-0.659876 -0.749004 0.0596385
-0.723494 -0.677716 0.131366
-0.776156 -0.598628 0.198056
-0.818091 -0.514447 0.257042
-0.850551 -0.427221 0.306669
-0.875089 -0.338194 0.346186
-0.892998 -0.248052 0.375534
-0.905042 -0.157301 0.395165
-0.911485 -0.0665902 0.405908
-0.912305 0.0231014 0.408858
-0.9075 0.110451 0.40527
-0.897351 0.1939 0.39644
-0.882575 0.271841 0.383619
-0.864345 0.342832 0.367933
-0.844165 0.405784 0.350322
-0.823668 0.460099 0.331482
-0.804362 0.505755 0.31179
-0.78737 0.543361 0.291217
-0.773197 0.574174 0.269239
-0.761572 0.60009 0.244746
-0.75138 0.623514 0.216007
-0.740658 0.647107 0.180773
-0.7265 0.673461 0.13656
-0.704771 0.704771 0.0812185
-0.669768 0.742438 0.0139912
-0.614315 0.786422 -0.0644752
-0.529317 0.835318 -0.148551
-0.170085 0.324665 0.93041
-0.145568 0.355495 0.923273
0.00728745 0.31652 0.948558
0.224478 0.224478 0.948272
0.457192 0.0792243 0.885832
0.646786 -0.0958167 0.756628
0.761933 -0.268826 0.58923
0.806356 -0.421435 0.41495
0.796957 -0.549451 0.250925
0.74891 -0.65453 0.10356
0.673079 -0.739155 -0.0247798
0.577771 -0.80538 -0.132453
0.470356 -0.85514 -0.217948
0.357657 -0.890757 -0.280418
0.245401 -0.915014 -0.320199
0.137499 -0.930739 -0.338849
0.0357153 -0.940215 -0.338705
-0.0601279 -0.944722 -0.322312
-0.151566 -0.94435 -0.291944
-0.240689 -0.938023 -0.249362
-0.329223 -0.923711 -0.195882
-0.417632 -0.898866 -0.132753
-0.504576 -0.861156 -0.0617575
-0.587106 -0.809383 0.0143048
-0.661715 -0.744134 0.0916391
-0.725702 -0.667661 0.166088
-0.778032 -0.58302 0.233995
-0.819252 -0.493058 0.29278
-0.850768 -0.399849 0.341048
-0.874055 -0.304701 0.378399
-0.890151 -0.208503 0.405165
-0.899546 -0.112122 0.422192
-0.902358 -0.0166636 0.430665
-0.898656 0.076449 0.431941
-0.888767 0.165554 0.427416
-0.873481 0.248933 0.418406
-0.854087 0.325022 0.406074
-0.832273 0.392616 0.391375
-0.809909 0.451011 0.375016
-0.788782 0.50009 0.357397
-0.770315 0.540373 0.338544
-0.755307 0.573031 0.318036
-0.743744 0.599885 0.294928
-0.734711 0.62332 0.267717
-0.726396 0.646066 0.234407
-0.716097 0.670859 0.192753
-0.700071 0.700071 0.140712
-0.673246 0.735389 0.0770914
-0.629109 0.777315 0.00181634
-0.560052 0.824133 -0.0845414
-0.164773 0.288044 0.943335
-0.269822 0.412782 0.869947
-0.162211 0.422164 0.891889
0.0356248 0.383343 0.922919
0.286561 0.286561 0.914202
0.532176 0.134219 0.835927
0.715725 -0.0446474 0.696954
0.818903 -0.218606 0.530669
0.853758 -0.372461 0.363828
0.838386 -0.503598 0.208562
0.786553 -0.613665 0.0689112
0.707694 -0.704506 -0.0533015
0.609316 -0.777395 -0.156175
0.498616 -0.833596 -0.237697
0.382628 -0.875014 -0.296558
0.267385 -0.904295 -0.3328
0.15696 -0.924323 -0.347838
0.0530661 -0.937482 -0.343964
-0.044704 -0.945106 -0.323693
-0.1382 -0.947228 -0.289241
-0.229795 -0.9426 -0.242278
-0.321324 -0.928914 -0.184037
-0.413074 -0.903305 -0.115802
-0.503233 -0.863242 -0.0396244
-0.588289 -0.807601 0.0411813
-0.664383 -0.73733 0.122231
-0.728851 -0.65513 0.198951
-0.780949 -0.564372 0.267587
-0.82148 -0.468044 0.325738
-0.85188 -0.36831 0.372355
-0.873419 -0.266676 0.40746
-0.886849 -0.164402 0.431823
-0.892483 -0.0628414 0.446682
-0.890506 0.0364063 0.453513
-0.881327 0.131527 0.453833
-0.865827 0.220659 0.449059
-0.845434 0.302111 0.440421
-0.822027 0.374568 0.428918
-0.797725 0.437236 0.415282
-0.774601 0.489932 0.39995
-0.754385 0.533115 0.383003
-0.738184 0.567898 0.364111
-0.726259 0.596037 0.342472
-0.717913 0.619879 0.316783
-0.711486 0.642185 0.285282
-0.704428 0.665804 0.245937
-0.693276 0.693276 0.196818
-0.673461 0.7265 0.13656
-0.639085 0.766415 0.0646458
-0.582908 0.812318 -0.0188965
-0.495838 0.86186 -0.106498
-0.349796 0.412723 0.841012
-0.31637 0.486335 0.814486
-0.157893 0.49531 0.854247
0.0792243 0.457192 0.885832
0.354458 0.354458 0.865285
0.602186 0.195493 0.774051
0.774654 0.0139863 0.632231
0.866534 -0.160631 0.472564
0.8946 -0.316181 0.315786
0.876116 -0.451138 0.169986
0.822866 -0.566979 0.0377613
0.742734 -0.664895 -0.0791304
0.642396 -0.745352 -0.178262
0.528912 -0.808861 -0.256896
0.40968 -0.856826 -0.313067
0.291244 -0.891728 -0.346407
0.17803 -0.916518 -0.358191
0.0718005 -0.933716 -0.350741
-0.0280712 -0.944731 -0.326642
-0.123811 -0.949554 -0.288129
-0.218151 -0.94675 -0.236801
-0.313079 -0.933689 -0.173797
-0.408664 -0.907142 -0.100432
-0.502523 -0.864353 -0.0190654
-0.590494 -0.804306 0.0663959
-0.66836 -0.728365 0.150927
-0.733523 -0.639722 0.229565
-0.785501 -0.542089 0.298542
-0.825238 -0.438667 0.355743
-0.854055 -0.331862 0.400571
-0.872958 -0.22357 0.433544
-0.882504 -0.115564 0.455886
-0.883052 -0.00974144 0.469175
-0.87514 0.0918551 0.475071
-0.859782 0.187173 0.475123
-0.838573 0.274365 0.470658
-0.813616 0.351996 0.462739
-0.787295 0.419196 0.452151
-0.761988 0.475735 0.439375
-0.739745 0.522043 0.424557
-0.721992 0.559203 0.407456
-0.70928 0.588933 0.387403
-0.701144 0.613539 0.363271
-0.696092 0.635785 0.333516
-0.691695 0.658602 0.296314
-0.684678 0.684678 0.249862
-0.670859 0.716097 0.192753
-0.644926 0.754079 0.124241
-0.60033 0.798527 0.0442447
-0.529693 0.846917 -0.0464434
-0.354951 0.342911 0.869725
-0.442844 0.509361 0.737862
-0.334299 0.5576 0.759819
-0.134857 0.571701 0.809303
0.134219 0.532176 0.835927
0.422018 0.422018 0.802372
0.662475 0.257738 0.703348
0.821547 0.0755197 0.565117
0.904073 -0.0985922 0.415851
0.928283 -0.255214 0.270475
0.909422 -0.393632 0.134189
0.857063 -0.515137 0.00880644
0.777457 -0.620327 -0.103704
0.676359 -0.708843 -0.2002
0.560687 -0.780323 -0.276995
0.438348 -0.835529 -0.331273
0.316638 -0.876681 -0.362175
0.200532 -0.906769 -0.370888
0.09192 -0.928457 -0.359887
-0.0100885 -0.943243 -0.33195
-0.108204 -0.951079 -0.289379
-0.20563 -0.95032 -0.233685
-0.304533 -0.937951 -0.165851
-0.404684 -0.91029 -0.0871988
-0.502967 -0.864305 -0.000471136
-0.594439 -0.799121 0.0897064
-0.674488 -0.71661 0.177585
-0.740567 -0.620545 0.257846
-0.792376 -0.515097 0.326827
-0.830862 -0.403845 0.382854
-0.857155 -0.289643 0.425903
-0.872071 -0.17494 0.457042
-0.87621 -0.0620972 0.477912
-0.8703 0.0464978 0.490323
-0.855539 0.148526 0.495977
-0.833744 0.241934 0.496326
-0.807281 0.325145 0.492522
-0.778845 0.397207 0.485414
-0.751145 0.45786 0.475548
-0.726576 0.507531 0.463142
-0.706896 0.547309 0.448052
-0.692963 0.578904 0.429737
-0.684559 0.604597 0.407237
-0.680366 0.627137 0.37921
-0.678069 0.649506 0.344041
-0.67452 0.67452 0.300077
-0.665804 0.704428 0.245937
-0.647107 0.740658 0.180773
-0.61249 0.78356 0.104354
-0.554951 0.83171 0.0169489
-0.466143 0.881748 -0.0723265
-0.526394 0.478109 0.70308
-0.482168 0.577168 0.659083
-0.330192 0.628509 0.704237
-0.0958167 0.646786 0.756628
0.195493 0.602186 0.774051
0.483927 0.483927 0.72913
0.710697 0.316698 0.628182
0.856283 0.136321 0.498194
0.93181 -0.0353966 0.361217
0.954755 -0.191571 0.227471
0.937881 -0.332166 0.10022
0.888539 -0.458402 -0.0191392
0.81126 -0.570433 -0.128309
0.710705 -0.667111 -0.223297
0.593573 -0.747073 -0.299253
0.468409 -0.810229 -0.352309
0.343506 -0.858366 -0.381066
0.224578 -0.89443 -0.38673
0.113683 -0.921203 -0.372103
0.00956472 -0.94028 -0.340269
-0.0911324 -0.95157 -0.293613
-0.192206 -0.953179 -0.233467
-0.296004 -0.941596 -0.160559
-0.401827 -0.912539 -0.076215
-0.505564 -0.862635 0.0162877
-0.601291 -0.791228 0.111385
-0.683925 -0.700884 0.202503
-0.750928 -0.596173 0.284051
-0.80209 -0.481939 0.352684
-0.838293 -0.362365 0.407377
-0.860544 -0.240928 0.448797
-0.86972 -0.120704 0.478557
-0.866815 -0.00459042 0.498609
-0.853281 0.10472 0.510828
-0.831218 0.204896 0.516811
-0.803326 0.294173 0.517812
-0.772665 0.371499 0.514759
-0.74233 0.436588 0.508269
-0.715097 0.489887 0.498644
-0.693088 0.532524 0.485847
-0.677477 0.566235 0.469471
-0.668311 0.593304 0.448722
-0.664457 0.616469 0.422449
-0.663709 0.638731 0.389247
-0.663005 0.663005 0.347635
-0.658602 0.691695 0.296314
-0.646066 0.726396 0.234407
-0.620057 0.767738 0.16158
-0.574239 0.814957 0.0780726
-0.501964 0.864758 -0.0150042
-0.539798 0.384693 0.748752
-0.597796 0.561442 0.572209
-0.493903 0.638277 0.590476
-0.307282 0.697547 0.647307
-0.0446474 0.715725 0.696954
0.257738 0.662475 0.703348
0.536947 0.536947 0.650674
0.746832 0.369846 0.55268
0.880068 0.194074 0.433377
0.950681 0.0270251 0.30899
0.97431 -0.126566 0.186282
0.96126 -0.267324 0.0672091
0.916774 -0.396619 -0.0471083
0.843571 -0.514449 -0.154042
0.744976 -0.619018 -0.248652
0.627297 -0.707861 -0.324701
0.499788 -0.779763 -0.377069
0.371973 -0.835811 -0.403803
0.250472 -0.878741 -0.406298
0.13749 -0.911397 -0.387881
0.0312435 -0.935464 -0.352039
-0.07248 -0.950809 -0.301178
-0.178195 -0.955202 -0.236295
-0.288344 -0.944445 -0.157741
-0.401428 -0.913442 -0.0669295
-0.511924 -0.858434 0.0320148
-0.612649 -0.779208 0.132273
-0.697969 -0.679404 0.226384
-0.765351 -0.564741 0.308718
-0.814673 -0.441014 0.376583
-0.846849 -0.313187 0.429837
-0.863022 -0.185419 0.469907
-0.86451 -0.0613525 0.498858
-0.8531 0.0557984 0.518754
-0.831257 0.163324 0.531353
-0.802091 0.259206 0.538017
-0.769111 0.342256 0.539749
-0.73587 0.412151 0.53724
-0.705591 0.469372 0.530878
-0.680799 0.515113 0.520741
-0.663017 0.551178 0.506569
-0.652567 0.579886 0.487738
-0.648514 0.603976 0.463294
-0.648764 0.626458 0.432036
-0.65031 0.65031 0.392676
-0.649506 0.678069 0.344041
-0.642185 0.711486 0.285282
-0.623514 0.75138 0.216007
-0.587765 0.797459 0.136353
-0.528527 0.847622 0.04686
-0.438523 0.897718 -0.0424178
-0.675461 0.502613 0.539567
-0.623605 0.614309 0.483468
-0.485314 0.697097 0.527756
-0.268826 0.761933 0.58923
0.0139863 0.774654 0.632231
0.316698 0.710697 0.628182
0.580115 0.580115 0.57178
0.772343 0.416296 0.479775
0.894687 0.247693 0.37173
0.961847 0.0876597 0.259163
0.987352 -0.0608665 0.146394
0.979349 -0.199225 0.034416
0.941179 -0.329268 -0.0759312
0.873691 -0.451258 -0.181745
0.778586 -0.563061 -0.277068
0.661517 -0.661094 -0.354048
0.53243 -0.742691 -0.406114
0.402249 -0.807847 -0.430788
0.278607 -0.858828 -0.429875
0.163764 -0.898432 -0.407432
0.0551609 -0.928432 -0.367384
-0.0525135 -0.948626 -0.31201
-0.164556 -0.956286 -0.241739
-0.283229 -0.946202 -0.156472
-0.405645 -0.912189 -0.0579918
-0.524255 -0.850196 0.0481987
-0.630315 -0.760981 0.15366
-0.717682 -0.649883 0.25017
-0.783977 -0.524216 0.332531
-0.829378 -0.390926 0.399135
-0.855123 -0.255779 0.450934
-0.862893 -0.12351 0.490062
-0.854891 0.00194315 0.518804
-0.834024 0.117367 0.5391
-0.803902 0.220402 0.552418
-0.768576 0.309666 0.559819
-0.732159 0.38477 0.562046
-0.698406 0.446227 0.559563
-0.67032 0.495324 0.552563
-0.649817 0.533967 0.540941
-0.63752 0.56455 0.524262