# vtk DataFile Version 2.0
tmp/0.000.00-10.000.000.001.0053.vtk
ASCII
DATASET UNSTRUCTURED_GRID
POINTS 5000 float
0.25 0.25 0
1.25 0.25 0
2.25 0.25 0
3.25 0.25 0
4.25 0.25 0
5.25 0.25 0
6.25 0.25 0
7.25 0.25 0
8.25 0.25 0
9.25 0.25 0
10.25 0.25 0
11.25 0.25 0
12.25 0.25 0
13.25 0.25 0
14.25 0.25 0
15.25 0.25 0
16.25 0.25 0
17.25 0.25 0
18.25 0.25 0
19.25 0.25 0
20.25 0.25 0
21.25 0.25 0
22.25 0.25 0
23.25 0.25 0
24.25 0.25 0
25.25 0.25 0
26.25 0.25 0
27.25 0.25 0
28.25 0.25 0
29.25 0.25 0
30.25 0.25 0
31.25 0.25 0
32.25 0.25 0
33.25 0.25 0
34.25 0.25 0
35.25 0.25 0
36.25 0.25 0
37.25 0.25 0
38.25 0.25 0
39.25 0.25 0
40.25 0.25 0
41.25 0.25 0
42.25 0.25 0
43.25 0.25 0
44.25 0.25 0
45.25 0.25 0
46.25 0.25 0
47.25 0.25 0
48.25 0.25 0
49.25 0.25 0
0.75 0.75 0
1.75 0.75 0
2.75 0.75 0
3.75 0.75 0
4.75 0.75 0
5.75 0.75 0
6.75 0.75 0
7.75 0.75 0
8.75 0.75 0
9.75 0.75 0
10.75 0.75 0
11.75 0.75 0
12.75 0.75 0
13.75 0.75 0
14.75 0.75 0
15.75 0.75 0
16.75 0.75 0
17.75 0.75 0
18.75 0.75 0
19.75 0.75 0
20.75 0.75 0
21.75 0.75 0
22.75 0.75 0
23.75 0.75 0
24.75 0.75 0
25.75 0.75 0
26.75 0.75 0
27.75 0.75 0
28.75 0.75 0
29.75 0.75 0
30.75 0.75 0
31.75 0.75 0
32.75 0.75 0
33.75 0.75 0
34.75 0.75 0
35.75 0.75 0
36.75 0.75 0
37.75 0.75 0
38.75 0.75 0
39.75 0.75 0
40.75 0.75 0
41.75 0.75 0
42.75 0.75 0
43.75 0.75 0
44.75 0.75 0
45.75 0.75 0
46.75 0.75 0
47.75 0.75 0
48.75 0.75 0
49.75 0.75 0
0.25 1.25 0
1.25 1.25 0
2.25 1.25 0
3.25 1.25 0
4.25 1.25 0
5.25 1.25 0
6.25 1.25 0
7.25 1.25 0
8.25 1.25 0
9.25 1.25 0
10.25 1.25 0
11.25 1.25 0
12.25 1.25 0
13.25 1.25 0
14.25 1.25 0
15.25 1.25 0
16.25 1.25 0
17.25 1.25 0
18.25 1.25 0
19.25 1.25 0
20.25 1.25 0
21.25 1.25 0
22.25 1.25 0
23.25 1.25 0
24.25 1.25 0
25.25 1.25 0
26.25 1.25 0
27.25 1.25 0
28.25 1.25 0
29.25 1.25 0
30.25 1.25 0
31.25 1.25 0
32.25 1.25 0
33.25 1.25 0
34.25 1.25 0
35.25 1.25 0
36.25 1.25 0
37.25 1.25 0
38.25 1.25 0
39.25 1.25 0
40.25 1.25 0
41.25 1.25 0
42.25 1.25 0
43.25 1.25 0
44.25 1.25 0
45.25 1.25 0
46.25 1.25 0
47.25 1.25 0
48.25 1.25 0
49.25 1.25 0
0.75 1.75 0
1.75 1.75 0
2.75 1.75 0
3.75 1.75 0
4.75 1.75 0
5.75 1.75 0
6.75 1.75 0
7.75 1.75 0
8.75 1.75 0
9.75 1.75 0
10.75 1.75 0
11.75 1.75 0
12.75 1.75 0
13.75 1.75 0
14.75 1.75 0
15.75 1.75 0
16.75 1.75 0
17.75 1.75 0
18.75 1.75 0
19.75 1.75 0
20.75 1.75 0
21.75 1.75 0
22.75 1.75 0
23.75 1.75 0
24.75 1.75 0
25.75 1.75 0
26.75 1.75 0
27.75 1.75 0
28.75 1.75 0
29.75 1.75 0
30.75 1.75 0
31.75 1.75 0
32.75 1.75 0
33.75 1.75 0
34.75 1.75 0
35.75 1.75 0
36.75 1.75 0
37.75 1.75 0
38.75 1.75 0
39.75 1.75 0
40.75 1.75 0
41.75 1.75 0
42.75 1.75 0
43.75 1.75 0
44.75 1.75 0
45.75 1.75 0
46.75 1.75 0
47.75 1.75 0
48.75 1.75 0
49.75 1.75 0
0.25 2.25 0
1.25 2.25 0
2.25 2.25 0
3.25 2.25 0
4.25 2.25 0
5.25 2.25 0
6.25 2.25 0
7.25 2.25 0
8.25 2.25 0
9.25 2.25 0
10.25 2.25 0
11.25 2.25 0
12.25 2.25 0
13.25 2.25 0
14.25 2.25 0
15.25 2.25 0
16.25 2.25 0
17.25 2.25 0
18.25 2.25 0
19.25 2.25 0
20.25 2.25 0
21.25 2.25 0
22.25 2.25 0
23.25 2.25 0
24.25 2.25 0
25.25 2.25 0
26.25 2.25 0
27.25 2.25 0
28.25 2.25 0
29.25 2.25 0
30.25 2.25 0
31.25 2.25 0
32.25 2.25 0
33.25 2.25 0
34.25 2.25 0
35.25 2.25 0
36.25 2.25 0
37.25 2.25 0
38.25 2.25 0
39.25 2.25 0
40.25 2.25 0
41.25 2.25 0
42.25 2.25 0
43.25 2.25 0
44.25 2.25 0
45.25 2.25 0
46.25 2.25 0
47.25 2.25 0
48.25 2.25 0
49.25 2.25 0
0.75 2.75 0
1.75 2.75 0
2.75 2.75 0
3.75 2.75 0
4.75 2.75 0
5.75 2.75 0
6.75 2.75 0
7.75 2.75 0
8.75 2.75 0
9.75 2.75 0
10.75 2.75 0
11.75 2.75 0
12.75 2.75 0
13.75 2.75 0
14.75 2.75 0
15.75 2.75 0
16.75 2.75 0
17.75 2.75 0
18.75 2.75 0
19.75 2.75 0
20.75 2.75 0
21.75 2.75 0
22.75 2.75 0
23.75 2.75 0
24.75 2.75 0
25.75 2.75 0
26.75 2.75 0
27.75 2.75 0
28.75 2.75 0
29.75 2.75 0
30.75 2.75 0
31.75 2.75 0
32.75 2.75 0
33.75 2.75 0
34.75 2.75 0
35.75 2.75 0
36.75 2.75 0
37.75 2.75 0
38.75 2.75 0
39.75 2.75 0
40.75 2.75 0
41.75 2.75 0
42.75 2.75 0
43.75 2.75 0
44.75 2.75 0
45.75 2.75 0
46.75 2.75 0
47.75 2.75 0
48.75 2.75 0
49.75 2.75 0
0.25 3.25 0
1.25 3.25 0
2.25 3.25 0
3.25 3.25 0
4.25 3.25 0
5.25 3.25 0
6.25 3.25 0
7.25 3.25 0
8.25 3.25 0
9.25 3.25 0
10.25 3.25 0
11.25 3.25 0
12.25 3.25 0
13.25 3.25 0
14.25 3.25 0
15.25 3.25 0
16.25 3.25 0
17.25 3.25 0
18.25 3.25 0
19.25 3.25 0
20.25 3.25 0
21.25 3.25 0
22.25 3.25 0
23.25 3.25 0
24.25 3.25 0
25.25 3.25 0
26.25 3.25 0
27.25 3.25 0
28.25 3.25 0
29.25 3.25 0
30.25 3.25 0
31.25 3.25 0
32.25 3.25 0
33.25 3.25 0
34.25 3.25 0
35.25 3.25 0
36.25 3.25 0
37.25 3.25 0
38.25 3.25 0
39.25 3.25 0
40.25 3.25 0
41.25 3.25 0
42.25 3.25 0
43.25 3.25 0
44.25 3.25 0
45.25 3.25 0
46.25 3.25 0
47.25 3.25 0
48.25 3.25 0
49.25 3.25 0
0.75 3.75 0
1.75 3.75 0
2.75 3.75 0
3.75 3.75 0
4.75 3.75 0
5.75 3.75 0
6.75 3.75 0
7.75 3.75 0
8.75 3.75 0
9.75 3.75 0
10.75 3.75 0
11.75 3.75 0
12.75 3.75 0
13.75 3.75 0
14.75 3.75 0
15.75 3.75 0
16.75 3.75 0
17.75 3.75 0
18.75 3.75 0
19.75 3.75 0
20.75 3.75 0
21.75 3.75 0
22.75 3.75 0
23.75 3.75 0
24.75 3.75 0
25.75 3.75 0
26.75 3.75 0
27.75 3.75 0
28.75 3.75 0
29.75 3.75 0
30.75 3.75 0
31.75 3.75 0
32.75 3.75 0
33.75 3.75 0
34.75 3.75 0
35.75 3.75 0
36.75 3.75 0
37.75 3.75 0
38.75 3.75 0
39.75 3.75 0
40.75 3.75 0
41.75 3.75 0
42.75 3.75 0
43.75 3.75 0
44.75 3.75 0
45.75 3.75 0
46.75 3.75 0
47.75 3.75 0
48.75 3.75 0
49.75 3.75 0
0.25 4.25 0
1.25 4.25 0
2.25 4.25 0
3.25 4.25 0
4.25 4.25 0
5.25 4.25 0
6.25 4.25 0
7.25 4.25 0
8.25 4.25 0
9.25 4.25 0
10.25 4.25 0
11.25 4.25 0
12.25 4.25 0
13.25 4.25 0
14.25 4.25 0
15.25 4.25 0
16.25 4.25 0
17.25 4.25 0
18.25 4.25 0
19.25 4.25 0
20.25 4.25 0
21.25 4.25 0
22.25 4.25 0
23.25 4.25 0
24.25 4.25 0
25.25 4.25 0
26.25 4.25 0
27.25 4.25 0
28.25 4.25 0
29.25 4.25 0
30.25 4.25 0
31.25 4.25 0
32.25 4.25 0
33.25 4.25 0
34.25 4.25 0
35.25 4.25 0
36.25 4.25 0
37.25 4.25 0
38.25 4.25 0
39.25 4.25 0
40.25 4.25 0
41.25 4.25 0
42.25 4.25 0
43.25 4.25 0
44.25 4.25 0
45.25 4.25 0
46.25 4.25 0
47.25 4.25 0
48.25 4.25 0
49.25 4.25 0
0.75 4.75 0
1.75 4.75 0
2.75 4.75 0
3.75 4.75 0
4.75 4.75 0
5.75 4.75 0
6.75 4.75 0
7.75 4.75 0
8.75 4.75 0
9.75 4.75 0
10.75 4.75 0
11.75 4.75 0
12.75 4.75 0
13.75 4.75 0
14.75 4.75 0
15.75 4.75 0
16.75 4.75 0
17.75 4.75 0
18.75 4.75 0
19.75 4.75 0
20.75 4.75 0
21.75 4.75 0
22.75 4.75 0
23.75 4.75 0
24.75 4.75 0
25.75 4.75 0
26.75 4.75 0
27.75 4.75 0
28.75 4.75 0
29.75 4.75 0
30.75 4.75 0
31.75 4.75 0
32.75 4.75 0
33.75 4.75 0
34.75 4.75 0
35.75 4.75 0
36.75 4.75 0
37.75 4.75 0
38.75 4.75 0
39.75 4.75 0
40.75 4.75 0
41.75 4.75 0
42.75 4.75 0
43.75 4.75 0
44.75 4.75 0
45.75 4.75 0
46.75 4.75 0
47.75 4.75 0
48.75 4.75 0
49.75 4.75 0
0.25 5.25 0
1.25 5.25 0
2.25 5.25 0
3.25 5.25 0
4.25 5.25 0
5.25 5.25 0
6.25 5.25 0
7.25 5.25 0
8.25 5.25 0
9.25 5.25 0
10.25 5.25 0
11.25 5.25 0
12.25 5.25 0
13.25 5.25 0
14.25 5.25 0
15.25 5.25 0
16.25 5.25 0
17.25 5.25 0
18.25 5.25 0
19.25 5.25 0
20.25 5.25 0
21.25 5.25 0
22.25 5.25 0
23.25 5.25 0
24.25 5.25 0
25.25 5.25 0
26.25 5.25 0
27.25 5.25 0
28.25 5.25 0
29.25 5.25 0
30.25 5.25 0
31.25 5.25 0
32.25 5.25 0
33.25 5.25 0
34.25 5.25 0
35.25 5.25 0
36.25 5.25 0
37.25 5.25 0
38.25 5.25 0
39.25 5.25 0
40.25 5.25 0
41.25 5.25 0
42.25 5.25 0
43.25 5.25 0
44.25 5.25 0
45.25 5.25 0
46.25 5.25 0
47.25 5.25 0
48.25 5.25 0
49.25 5.25 0
0.75 5.75 0
1.75 5.75 0
2.75 5.75 0
3.75 5.75 0
4.75 5.75 0
5.75 5.75 0
6.75 5.75 0
7.75 5.75 0
8.75 5.75 0
9.75 5.75 0
10.75 5.75 0
11.75 5.75 0
12.75 5.75 0
13.75 5.75 0
14.75 5.75 0
15.75 5.75 0
16.75 5.75 0
17.75 5.75 0
18.75 5.75 0
19.75 5.75 0
20.75 5.75 0
21.75 5.75 0
22.75 5.75 0
23.75 5.75 0
24.75 5.75 0
25.75 5.75 0
26.75 5.75 0
27.75 5.75 0
28.75 5.75 0
29.75 5.75 0
30.75 5.75 0
31.75 5.75 0
32.75 5.75 0
33.75 5.75 0
34.75 5.75 0
35.75 5.75 0
36.75 5.75 0
37.75 5.75 0
38.75 5.75 0
39.75 5.75 0
40.75 5.75 0
41.75 5.75 0
42.75 5.75 0
43.75 5.75 0
44.75 5.75 0
45.75 5.75 0
46.75 5.75 0
47.75 5.75 0
48.75 5.75 0
49.75 5.75 0
0.25 6.25 0
1.25 6.25 0
2.25 6.25 0
3.25 6.25 0
4.25 6.25 0
5.25 6.25 0
6.25 6.25 0
7.25 6.25 0
8.25 6.25 0
9.25 6.25 0
10.25 6.25 0
11.25 6.25 0
12.25 6.25 0
13.25 6.25 0
14.25 6.25 0
15.25 6.25 0
16.25 6.25 0
17.25 6.25 0
18.25 6.25 0
19.25 6.25 0
20.25 6.25 0
21.25 6.25 0
22.25 6.25 0
23.25 6.25 0
24.25 6.25 0
25.25 6.25 0
26.25 6.25 0
27.25 6.25 0
28.25 6.25 0
29.25 6.25 0
30.25 6.25 0
31.25 6.25 0
32.25 6.25 0
33.25 6.25 0
34.25 6.25 0
35.25 6.25 0
36.25 6.25 0
37.25 6.25 0
38.25 6.25 0
39.25 6.25 0
40.25 6.25 0
41.25 6.25 0
42.25 6.25 0
43.25 6.25 0
44.25 6.25 0
45.25 6.25 0
46.25 6.25 0
47.25 6.25 0
48.25 6.25 0
49.25 6.25 0
0.75 6.75 0
1.75 6.75 0
2.75 6.75 0
3.75 6.75 0
4.75 6.75 0
5.75 6.75 0
6.75 6.75 0
7.75 6.75 0
8.75 6.75 0
9.75 6.75 0
10.75 6.75 0
11.75 6.75 0
12.75 6.75 0
13.75 6.75 0
14.75 6.75 0
15.75 6.75 0
16.75 6.75 0
17.75 6.75 0
18.75 6.75 0
19.75 6.75 0
20.75 6.75 0
21.75 6.75 0
22.75 6.75 0
23.75 6.75 0
24.75 6.75 0
25.75 6.75 0
26.75 6.75 0
27.75 6.75 0
28.75 6.75 0
29.75 6.75 0
30.75 6.75 0
31.75 6.75 0
32.75 6.75 0
33.75 6.75 0
34.75 6.75 0
35.75 6.75 0
36.75 6.75 0
37.75 6.75 0
38.75 6.75 0
39.75 6.75 0
40.75 6.75 0
41.75 6.75 0
42.75 6.75 0
43.75 6.75 0
44.75 6.75 0
45.75 6.75 0
46.75 6.75 0
47.75 6.75 0
48.75 6.75 0
49.75 6.75 0
0.25 7.25 0
1.25 7.25 0
2.25 7.25 0
3.25 7.25 0
4.25 7.25 0
5.25 7.25 0
6.25 7.25 0
7.25 7.25 0
8.25 7.25 0
9.25 7.25 0
10.25 7.25 0
11.25 7.25 0
12.25 7.25 0
13.25 7.25 0
14.25 7.25 0
15.25 7.25 0
16.25 7.25 0
17.25 7.25 0
18.25 7.25 0
19.25 7.25 0
20.25 7.25 0
21.25 7.25 0
22.25 7.25 0
23.25 7.25 0
24.25 7.25 0
25.25 7.25 0
26.25 7.25 0
27.25 7.25 0
28.25 7.25 0
29.25 7.25 0
30.25 7.25 0
31.25 7.25 0
32.25 7.25 0
33.25 7.25 0
34.25 7.25 0
35.25 7.25 0
36.25 7.25 0
37.25 7.25 0
38.25 7.25 0
39.25 7.25 0
40.25 7.25 0
41.25 7.25 0
42.25 7.25 0
43.25 7.25 0
44.25 7.25 0
45.25 7.25 0
46.25 7.25 0
47.25 7.25 0
48.25 7.25 0
49.25 7.25 0
0.75 7.75 0
1.75 7.75 0
2.75 7.75 0
3.75 7.75 0
4.75 7.75 0
5.75 7.75 0
6.75 7.75 0
7.75 7.75 0
8.75 7.75 0
9.75 7.75 0
10.75 7.75 0
11.75 7.75 0
12.75 7.75 0
13.75 7.75 0
14.75 7.75 0
15.75 7.75 0
16.75 7.75 0
17.75 7.75 0
18.75 7.75 0
19.75 7.75 0
20.75 7.75 0
21.75 7.75 0
[...]
POINT_DATA 5000
VECTORS velocity float
-0.140719 -0.140719 0.979998
-0.0983097 -0.205839 0.973635
-0.0174972 -0.285769 0.958139
0.0839451 -0.39709 0.913933
0.188777 -0.534231 0.823991
0.276905 -0.676895 0.682009
0.332327 -0.801675 0.496865
0.347035 -0.892603 0.287795
0.320347 -0.944182 0.0768025
0.256721 -0.959403 -0.116788
0.163712 -0.946251 -0.278941
0.0504007 -0.914454 -0.401539
-0.0738541 -0.873119 -0.48188
-0.200413 -0.829312 -0.52161
-0.322097 -0.787519 -0.525421
-0.433617 -0.749786 -0.499798
-0.531691 -0.716282 -0.451935
-0.614891 -0.686035 -0.388927
-0.683311 -0.657623 -0.317202
-0.738124 -0.629699 -0.242182
-0.781136 -0.601299 -0.168123
-0.814409 -0.571938 -0.0981104
-0.839988 -0.541526 -0.0341951
-0.859765 -0.5102 0.0223767
-0.875417 -0.478141 0.0709012
-0.888399 -0.445456 0.110978
-0.89994 -0.412127 0.142334
-0.911022 -0.37803 0.16472
-0.922343 -0.34299 0.177879
-0.934277 -0.306849 0.181575
-0.946831 -0.269539 0.17567
-0.959637 -0.231126 0.160244
-0.971998 -0.191835 0.135718
-0.982994 -0.152055 0.102963
-0.991652 -0.112314 0.0633433
-0.997139 -0.0732466 0.0186754
-0.99895 -0.0355378 -0.0289112
-0.997017 0.00015806 -0.0771853
-0.991716 0.0333164 -0.124053
-0.983766 0.0636619 -0.167785
-0.974027 0.0913044 -0.207206
-0.96324 0.116899 -0.241873
-0.951724 0.141827 -0.272225
-0.939046 0.168371 -0.299741
-0.923634 0.199756 -0.327105
-0.902237 0.239796 -0.358421
-0.869214 0.291653 -0.399257
-0.816152 0.355818 -0.45529
-0.732837 0.429851 -0.527426
-0.612897 0.507951 -0.605262
-0.159303 -0.159303 0.974292
-0.0813097 -0.227905 0.970283
0.0283573 -0.322867 0.946019
0.151406 -0.446623 0.881819
0.265529 -0.586179 0.765434
0.350429 -0.719375 0.599749
0.394254 -0.827062 0.400664
0.393888 -0.899453 0.189305
0.3523 -0.935777 -0.0143439
0.275986 -0.941259 -0.194586
0.173261 -0.923998 -0.340893
0.0531703 -0.892601 -0.447701
-0.075343 -0.854614 -0.513769
-0.204174 -0.815645 -0.541328
-0.32666 -0.779063 -0.53512
-0.437966 -0.746174 -0.501409
-0.535193 -0.71672 -0.447081
-0.617235 -0.68952 -0.378922
-0.68444 -0.663083 -0.303089
-0.738163 -0.636073 -0.224782
-0.780324 -0.607588 -0.14809
-0.813042 -0.577224 -0.0759937
-0.838391 -0.544969 -0.0104938
-0.858288 -0.510997 0.0471622
-0.87445 -0.475476 0.0962287
-0.888373 -0.438445 0.136237
-0.901299 -0.399783 0.166834
-0.914163 -0.359267 0.187703
-0.927526 -0.316656 0.198554
-0.941515 -0.271796 0.199188
-0.955803 -0.224702 0.189604
-0.969646 -0.175616 0.170134
-0.982002 -0.125028 0.141563
-0.991719 -0.0736767 0.105195
-0.99777 -0.0225135 0.0628288
-0.999487 0.0273559 0.0166274
-0.996716 0.0747782 -0.0310821
-0.989859 0.118694 -0.0780476
-0.979786 0.158298 -0.122313
-0.967624 0.193203 -0.16241
-0.954458 0.223605 -0.197511
-0.941003 0.250451 -0.227568
-0.927256 0.275619 -0.253439
-0.912152 0.302038 -0.277041
-0.89318 0.333547 -0.301622
-0.865869 0.374045 -0.332206
-0.823305 0.425478 -0.375681
-0.756061 0.486307 -0.438038
-0.652339 0.552488 -0.518856
-0.507951 0.612898 -0.605262
-0.205839 -0.0983097 0.973635
-0.150959 -0.150959 0.976946
-0.0417835 -0.225354 0.973381
0.0933049 -0.331027 0.938997
0.231567 -0.462512 0.855839
0.347848 -0.60191 0.718823
0.424556 -0.727796 0.538576
0.454871 -0.825332 0.334544
0.439987 -0.888958 0.127143
0.385504 -0.920302 -0.0665654
0.299027 -0.925075 -0.234136
0.188971 -0.910597 -0.367565
0.0639682 -0.88417 -0.462766
-0.0676054 -0.852056 -0.519066
-0.198163 -0.818881 -0.538671
-0.321439 -0.78739 -0.526017
-0.432887 -0.758568 -0.487015
-0.529833 -0.732028 -0.428265
-0.61137 -0.70657 -0.35635
-0.678025 -0.680725 -0.277302
-0.73131 -0.6532 -0.196252
-0.773265 -0.623146 -0.117263
-0.80608 -0.590218 -0.0433215
-0.831881 -0.554456 0.0235286
-0.85262 -0.516063 0.0819701
-0.870046 -0.475201 0.131167
-0.885663 -0.431871 0.170551
-0.900663 -0.385917 0.199685
-0.91583 -0.337107 0.218208
-0.931457 -0.28526 0.225864
-0.947302 -0.230358 0.222607
-0.962615 -0.172635 0.208734
-0.976262 -0.112622 0.185012
-0.98694 -0.0511672 0.152747
-0.993453 0.0105803 0.113749
-0.994987 0.0712154 0.0702037
-0.991319 0.129187 0.0244585
-0.982889 0.182975 -0.0212011
-0.970725 0.2313 -0.0647559
-0.956212 0.273338 -0.104623
-0.940768 0.308888 -0.139795
-0.925478 0.338533 -0.169958
-0.910718 0.36378 -0.195593
-0.895828 0.387201 -0.218099
-0.878794 0.412442 -0.240026
-0.855904 0.443753 -0.265541
-0.821358 0.484488 -0.301068
-0.766986 0.534978 -0.354304
-0.681671 0.592742 -0.428932
-0.552488 0.652339 -0.518856
-0.227905 -0.0813097 0.970283
-0.127341 -0.127341 0.983651
0.0132268 -0.207655 0.978113
0.171028 -0.321881 0.931204
0.318691 -0.4584 0.829642
0.431636 -0.596654 0.676531
0.497196 -0.717413 0.48797
0.51358 -0.809605 0.284211
0.485296 -0.870351 0.0835219
0.41952 -0.902218 -0.100023
0.324247 -0.910531 -0.256508
0.207656 -0.901571 -0.379538
0.077916 -0.881481 -0.465746
-0.0570455 -0.855575 -0.514527
-0.189967 -0.827846 -0.52781
-0.314777 -0.800712 -0.509681
-0.427045 -0.775038 -0.465778
-0.52421 -0.750435 -0.402555
-0.605511 -0.72575 -0.326565
-0.671667 -0.699566 -0.243866
-0.724401 -0.67064 -0.15964
-0.765938 -0.638164 -0.0780088
-0.798619 -0.601833 -0.00202554
-0.824677 -0.561717 0.0661887
-0.846145 -0.518031 0.125227
-0.864812 -0.470924 0.174159
-0.882151 -0.420386 0.212333
-0.899217 -0.366278 0.239271
-0.916522 -0.308451 0.254648
-0.933965 -0.246884 0.258375
-0.950835 -0.181796 0.250726
-0.965933 -0.113715 0.232472
-0.977805 -0.0435189 0.204946
-0.985059 0.0275505 0.170001
-0.986689 0.097899 0.129852
-0.98235 0.165663 0.086854
-0.972488 0.228895 0.0432814
-0.958277 0.285839 0.00114826
-0.941382 0.335202 -0.0379319
-0.923593 0.376385 -0.0728691
-0.906397 0.409626 -0.103201
-0.890573 0.43611 -0.129181
-0.875844 0.458074 -0.151872
-0.860598 0.478884 -0.173323
-0.841643 0.502846 -0.196933
-0.813951 0.534257 -0.22815
-0.770393 0.575399 -0.274609
-0.70124 0.625389 -0.342274
-0.592742 0.681671 -0.428932
-0.429851 0.732837 -0.527426
-0.285769 -0.0174972 0.958139
-0.225354 -0.0417835 0.973381
-0.0887983 -0.0887983 0.992084
0.0812073 -0.175281 0.981163
0.256822 -0.296601 0.919821
0.407767 -0.436591 0.801944
0.513371 -0.574097 0.637858
0.566656 -0.692624 0.446289
0.569961 -0.783894 0.246281
0.529899 -0.846377 0.0534135
0.454326 -0.882611 -0.120771
0.351172 -0.897114 -0.268077
0.228267 -0.895117 -0.382962
0.0934154 -0.881831 -0.462221
-0.0457029 -0.861912 -0.504994
-0.181909 -0.839002 -0.51282
-0.309104 -0.815395 -0.489475
-0.422818 -0.791969 -0.440466
-0.520523 -0.768412 -0.372288
-0.601611 -0.743649 -0.291632
-0.667049 -0.716334 -0.204722
-0.71885 -0.685268 -0.116884
-0.759521 -0.649677 -0.0323591
-0.791637 -0.60928 0.0457
-0.817605 -0.564163 0.115079
-0.839568 -0.51454 0.174281
-0.859339 -0.460562 0.222304
-0.878288 -0.402251 0.258465
-0.897209 -0.339564 0.282333
-0.916204 -0.27253 0.293764
-0.93466 -0.201375 0.293015
-0.951355 -0.126619 0.280874
-0.964701 -0.0491225 0.258726
-0.973087 0.0298697 0.228494
-0.975269 0.108696 0.192447
-0.970706 0.185302 0.152949
-0.959765 0.257401 0.112234
-0.943714 0.322774 0.0722623
-0.924491 0.379629 0.0346173
-0.904291 0.426916 0.000410614
-0.885068 0.464505 -0.029818
-0.868059 0.493271 -0.0561849
-0.853403 0.515146 -0.0795445
-0.839865 0.5332 -0.101614
-0.824643 0.551617 -0.125232
-0.803221 0.575189 -0.154902
-0.769202 0.607758 -0.197378
-0.713957 0.650247 -0.259701
-0.625389 0.70124 -0.342274
-0.486307 0.756061 -0.438038
-0.322867 0.0283573 0.946019
-0.207655 0.0132268 0.978113
-0.0366484 -0.0366484 0.998656
0.158865 -0.1296 0.978757
0.345567 -0.257087 0.902491
0.494223 -0.39992 0.771885
0.590109 -0.537894 0.602031
0.631393 -0.657143 0.411711
0.623198 -0.75117 0.21764
0.573118 -0.818816 0.0327987
0.489053 -0.862029 -0.133164
0.378638 -0.884347 -0.273064
0.249379 -0.89004 -0.381626
0.108881 -0.883597 -0.455414
-0.0351827 -0.869256 -0.493109
-0.175475 -0.850507 -0.495829
-0.305675 -0.829667 -0.467135
-0.421162 -0.807716 -0.412575
-0.519424 -0.784455 -0.338866
-0.600049 -0.758906 -0.252987
-0.664341 -0.729789 -0.161431
-0.714706 -0.69594 -0.0697334
-0.754029 -0.656602 0.0177105
-0.785195 -0.611505 0.0976277
-0.81083 -0.56074 0.167708
-0.833182 -0.504537 0.226384
-0.854016 -0.443093 0.272627
-0.87447 -0.376536 0.305813
-0.894919 -0.305021 0.325704
-0.914908 -0.228843 0.332527
-0.933242 -0.148547 0.327097
-0.948225 -0.0649849 0.310879
-0.958035 0.0206324 0.285909
-0.961156 0.106665 0.254561
-0.956793 0.191001 0.219237
-0.945151 0.271143 0.182127
-0.927509 0.344493 0.145094
-0.906026 0.408774 0.109635
-0.883313 0.462445 0.0768278
-0.861848 0.504963 0.0472378
-0.843404 0.536877 0.0208277
-0.8286 0.559832 -0.00312709
-0.816604 0.576606 -0.0261379
-0.804955 0.591168 -0.0506669
-0.789484 0.608471 -0.0804833
-0.764259 0.633408 -0.121254
-0.721402 0.668714 -0.180002
-0.650247 0.713957 -0.259701
-0.534978 0.766986 -0.354304
-0.355818 0.816152 -0.45529
-0.39709 0.0839451 0.913933
-0.331027 0.0933049 0.938997
-0.175281 0.0812073 0.981163
0.0270407 0.0270407 0.999269
0.241559 -0.072848 0.967648
0.432112 -0.205897 0.878001
0.574329 -0.351552 0.739295
0.659739 -0.49149 0.568491
0.690308 -0.614042 0.382658
0.672574 -0.713651 0.195821
0.614238 -0.788898 0.0187688
0.522851 -0.840828 -0.140123
0.405673 -0.871948 -0.27411
0.269979 -0.885672 -0.377751
0.123371 -0.885937 -0.447097
-0.0262542 -0.876742 -0.480243
-0.171183 -0.861575 -0.477897
-0.304718 -0.84287 -0.443528
-0.422024 -0.821759 -0.382894
-0.520623 -0.798175 -0.303097
-0.600378 -0.771233 -0.21153
-0.663032 -0.7397 -0.115032
-0.711492 -0.702427 -0.0193962
-0.749108 -0.658653 0.0707996
-0.779135 -0.608111 0.15215
-0.804422 -0.550917 0.222254
-0.827254 -0.487364 0.279513
-0.849212 -0.417782 0.322951
-0.871018 -0.342523 0.352145
-0.892449 -0.262039 0.367248
-0.912388 -0.176977 0.369089
-0.929066 -0.0882384 0.359236
-0.94046 0.00297439 0.339892
-0.944781 0.0950731 0.313608
-0.940947 0.185981 0.282896
-0.928941 0.273131 0.249938
-0.909967 0.353686 0.216486
-0.88633 0.424967 0.183907
-0.861019 0.484953 0.153188
-0.837063 0.532664 0.124876
-0.816844 0.568305 0.0989726
-0.801544 0.593235 0.0748342
-0.790791 0.609951 0.0510728
-0.782477 0.622159 0.0254547
-0.772698 0.634752 -0.00528281
-0.755798 0.653199 -0.0458385
-0.724351 0.68177 -0.102493
-0.668714 0.721402 -0.180002
-0.575399 0.770393 -0.274609
-0.425478 0.823305 -0.375681
-0.446623 0.151406 0.881819
-0.321881 0.171028 0.931204
-0.1296 0.158865 0.978757
0.0986701 0.0986701 0.990216
0.323986 -0.00855556 0.946023
0.512108 -0.146637 0.846312
0.645523 -0.295269 0.704355
0.720999 -0.438423 0.536605
0.742733 -0.566133 0.357549
0.717551 -0.673205 0.178646
0.652675 -0.757584 0.00897895
0.555084 -0.819262 -0.143842
0.431651 -0.859709 -0.273091
0.289539 -0.881565 -0.372842
0.136525 -0.888339 -0.438423
-0.0190563 -0.883916 -0.467257
-0.168927 -0.871872 -0.459676
-0.305894 -0.854819 -0.419182
-0.424873 -0.834054 -0.351905
-0.523461 -0.809636 -0.265477
-0.601889 -0.780749 -0.167812
-0.662451 -0.746178 -0.0661649
-0.708663 -0.704758 0.0333702
-0.744422 -0.655712 0.126007
-0.77337 -0.598792 0.208198
-0.798525 -0.534196 0.277475
-0.822068 -0.462386 0.33227
-0.845189 -0.383953 0.371799
-0.867981 -0.2996 0.39604
-0.88947 -0.210184 0.40579
-0.907848 -0.116754 0.402715
-0.92091 -0.0205886 0.389232
-0.926592 0.0767387 0.368157
-0.923517 0.173217 0.342216
-0.911423 0.266319 0.313661
-0.891379 0.353118 0.284168
-0.865751 0.430667 0.254954
-0.837835 0.496547 0.226879
-0.811192 0.549359 0.200428
-0.788851 0.588959 0.175617
-0.772629 0.616429 0.151856
-0.762694 0.634 0.127834
-0.757339 0.645095 0.101438
-0.752919 0.65441 0.0697121
-0.743946 0.667623 0.0286826
-0.723231 0.69008 -0.0269336
-0.68177 0.724351 -0.102493
-0.607758 0.769202 -0.197378
-0.484488 0.821358 -0.301068
-0.291653 0.869214 -0.399257
-0.534231 0.188777 0.823991
-0.462512 0.231567 0.855839
-0.296601 0.256822 0.919821
-0.072848 0.241559 0.967648
0.173515 0.173515 0.969425
0.401479 0.0590305 0.913964
0.582749 -0.0833805 0.808363
0.706632 -0.234938 0.667439
0.773533 -0.381965 0.505717
0.788532 -0.5158 0.334915
0.757966 -0.631272 0.164266
0.688208 -0.725512 0.00156342
0.585533 -0.797395 -0.145988
0.456434 -0.84736 -0.271382
0.308056 -0.877323 -0.367976
0.148511 -0.89043 -0.430208
-0.0132443 -0.890517 -0.454757
-0.168199 -0.881296 -0.441618
-0.30856 -0.865565 -0.394447
-0.428975 -0.844776 -0.319898
-0.52717 -0.819079 -0.226275
-0.603846 -0.787691 -0.122119
-0.661971 -0.749376 -0.0151709
-0.705779 -0.702929 0.0881294
-0.739768 -0.647566 0.182759
-0.767941 -0.583118 0.26503
-0.793342 -0.509983 0.332455
-0.817827 -0.428946 0.38362
-0.841943 -0.34102 0.418137
-0.864944 -0.24739 0.436658
-0.885032 -0.149396 0.440908
-0.899827 -0.0485157 0.433541
-0.906992 0.0535897 0.417725
-0.904855 0.154942 0.396522
-0.892904 0.253103 0.372373
-0.872052 0.345184 0.34695
-0.844656 0.42813 0.321341
-0.814238 0.499245 0.296262
-0.784829 0.556776 0.272111
-0.760094 0.600256 0.248897
-0.742528 0.630508 0.226079
-0.732911 0.649519 0.202401
-0.730007 0.660439 0.175811
-0.730472 0.667697 0.1435
-0.728957 0.676924 0.101956
-0.718378 0.694076 0.0468143
-0.69008 0.723231 -0.0269336
-0.633408 0.764259 -0.121254
-0.534257 0.813951 -0.22815
-0.374045 0.865869 -0.332206
-0.586179 0.265529 0.765434
-0.4584 0.318691 0.829642
-0.257087 0.345567 0.902491
-0.00855556 0.323986 0.946023
0.246928 0.246928 0.937045
0.470989 0.125974 0.873098
0.642986 -0.0197653 0.765623
0.757742 -0.173797 0.628985
0.817767 -0.324664 0.475238
0.82808 -0.464738 0.313532
0.794059 -0.588728 0.151228
0.721006 -0.692912 -0.00488126
0.614392 -0.775039 -0.147773
0.480308 -0.834517 -0.269973
0.325935 -0.872536 -0.363932
0.159853 -0.891893 -0.423054
-0.00819457 -0.896386 -0.4432
-0.168304 -0.889861 -0.424054
-0.311983 -0.875273 -0.369545
-0.433589 -0.854181 -0.28701
-0.53104 -0.826775 -0.18558
-0.605623 -0.792253 -0.0745363
-0.661118 -0.749329 0.03781
-0.702579 -0.696754 0.144624
-0.735122 -0.633793 0.240627
-0.762996 -0.560483 0.322018
-0.78905 -0.477601 0.386391
-0.814519 -0.386447 0.432687
-0.839034 -0.288633 0.461208
-0.860875 -0.185945 0.473624
-0.877501 -0.0802392 0.472814
-0.886288 0.0265829 0.462371
-0.885261 0.132479 0.445827
-0.873668 0.23509 0.425954
-0.852267 0.331657 0.40453
-0.823373 0.419161 0.382572
-0.79065 0.494772 0.360656
-0.758519 0.556482 0.339082
-0.731234 0.603551 0.317842
-0.711968 0.636571 0.296445
-0.702153 0.657319 0.273702
-0.701101 0.668698 0.247591
-0.705835 0.674851 0.215343
-0.711176 0.681222 0.17368
-0.710087 0.694 0.11891
-0.694076 0.718378 0.0468143
-0.653199 0.755798 -0.0458385
-0.575189 0.803221 -0.154902
-0.443753 0.855904 -0.265541
-0.239796 0.902237 -0.358421
-0.676895 0.276905 0.682009
-0.60191 0.347848 0.718823
-0.436591 0.407767 0.801944
-0.205897 0.432112 0.878001
0.0590305 0.401479 0.913964
0.315434 0.315434 0.894988
0.531267 0.189423 0.825757
0.693145 0.041622 0.719595
0.79977 -0.114039 0.589375
0.854613 -0.268111 0.444694
0.862083 -0.413852 0.292472
0.82636 -0.545851 0.138476
0.751536 -0.659594 -0.0113449
0.642162 -0.751739 -0.150051
0.503859 -0.820643 -0.269578
0.343853 -0.866727 -0.361316
0.171284 -0.8924 -0.417473
-0.00315881 -0.90139 -0.432997
-0.168511 -0.897624 -0.407278
-0.315468 -0.88414 -0.344641
-0.438069 -0.862518 -0.253294
-0.5345 -0.832918 -0.143375
-0.606773 -0.794481 -0.025055
-0.659626 -0.745855 0.0926977
-0.699021 -0.685799 0.202607
-0.730634 -0.61375 0.29914
-0.758758 -0.530147 0.378459
-0.785721 -0.43638 0.438424
-0.811799 -0.334492 0.478642
-0.835479 -0.226866 0.500506
-0.85409 -0.115959 0.507035
-0.86469 -0.00412731 0.502289
-0.864976 0.10636 0.490413
-0.853958 0.213155 0.474679
-0.832263 0.313672 0.457109
-0.80215 0.405055 0.438732
-0.767371 0.484485 0.420019
-0.732649 0.549809 0.401167
-0.702759 0.600079 0.382146
-0.681518 0.635694 0.362528
-0.671024 0.658256 0.341211
-0.671189 0.67046 0.316211
-0.67948 0.676188 0.28474
-0.690945 0.680635 0.24358
-0.698596 0.689982 0.189441
-0.694 0.710087 0.11891
-0.667623 0.743946 0.0286826
-0.608471 0.789484 -0.0804833
-0.502846 0.841643 -0.196933
-0.333547 0.89318 -0.301622
-0.719375 0.350429 0.599749
-0.596654 0.431636 0.676531
-0.39992 0.494223 0.771885
-0.146637 0.512108 0.846312
0.125974 0.470989 0.873098
0.377117 0.377117 0.845911
0.582421 0.247803 0.774196
0.734317 0.0993536 0.671496
0.83398 -0.0567983 0.548863
0.88514 -0.212992 0.413717
0.891354 -0.363324 0.271079
0.855523 -0.502376 0.125291
0.780422 -0.62498 -0.0185023
0.669532 -0.726763 -0.153435
0.527868 -0.805006 -0.270778
0.362649 -0.85929 -0.360702
0.183641 -0.891552 -0.414018
0.00263718 -0.905365 -0.424626
-0.16814 -0.904629 -0.391631
-0.318428 -0.892335 -0.31991
-0.441923 -0.869964 -0.218784
-0.537169 -0.83757 -0.0996334
-0.607071 -0.794212 0.0263127
-0.65748 -0.738526 0.149332
-0.695295 -0.669393 0.261683
-0.726616 -0.586628 0.357628
-0.755456 -0.491335 0.433447
-0.783217 -0.385801 0.487575
-0.808866 -0.273067 0.52074
-0.829675 -0.156425 0.535883
-0.842351 -0.0389859 0.537517
-0.844207 0.0765085 0.530529
-0.834003 0.187585 0.518895
-0.812256 0.291828 0.505051
-0.781187 0.386648 0.490153
-0.744599 0.469373 0.474617
-0.707452 0.537819 0.458545
-0.674963 0.590904 0.441879
-0.651542 0.628878 0.42427
-0.639941 0.653197 0.404734
-0.640696 0.66639 0.381357
-0.651784 0.672125 0.35132
-0.66855 0.675353 0.31135
-0.684089 0.682123 0.258322
-0.689982 0.698596 0.189441
-0.676924 0.728957 0.101956
-0.634752 0.772698 -0.00528281
-0.551617 0.824643 -0.125232
-0.412442 0.878794 -0.240026
-0.199756 0.923634 -0.327105
-0.801675 0.332327 0.496865
-0.727796 0.424556 0.538576
-0.574097 0.513371 0.637858
-0.351552 0.574329 0.739295
-0.0833805 0.582749 0.808363
0.189423 0.531267 0.825757
0.431398 0.431398 0.792333
0.625313 0.300589 0.72016
0.767828 0.152938 0.622133
0.861614 -0.00237714 0.507559
0.910321 -0.159293 0.382023
0.916635 -0.312776 0.248902
0.882185 -0.457589 0.111189
0.80833 -0.588117 -0.0268358
0.697281 -0.699069 -0.158437
0.553225 -0.786625 -0.274161
0.383251 -0.849427 -0.362758
0.197789 -0.888818 -0.413379
0.00992451 -0.908073 -0.418694
-0.166612 -0.910881 -0.37754
-0.320426 -0.89998 -0.295572
-0.444841 -0.8766 -0.183546
-0.538889 -0.84062 -0.0543828
-0.606552 -0.791066 0.0794356
-0.654928 -0.726686 0.207358
-0.691822 -0.646694 0.321199
-0.7235 -0.551553 0.415135
-0.753245 -0.443367 0.485848
-0.781043 -0.325675 0.53283
-0.804323 -0.202774 0.558523
-0.819422 -0.0788928 0.567735
-0.823177 0.0423859 0.5662
-0.814054 0.158221 0.558822
-0.792488 0.266305 0.548676
-0.760688 0.364393 0.537189
-0.7225 0.450089 0.524799
-0.683072 0.5213 0.511526
-0.648005 0.576889 0.497282
-0.622241 0.616995 0.481802
-0.609152 0.642958 0.464262
-0.609905 0.657181 0.442866
-0.623028 0.663167 0.414784
-0.644232 0.665665 0.376637
-0.666734 0.67056 0.325292
-0.682123 0.684089 0.258322
-0.681222 0.711176 0.17368
-0.65441 0.752919 0.0697121
-0.591168 0.804955 -0.0506669
-0.478884 0.860598 -0.173323
-0.302038 0.912152 -0.277041
-0.827062 0.394254 0.400664
-0.717413 0.497196 0.48797
-0.537894 0.590109 0.602031
-0.295269 0.645523 0.704355
-0.0197653 0.642986 0.765623
0.247803 0.582421 0.774196
0.478562 0.478562 0.736177
0.661062 0.347939 0.664782
0.794905 0.202502 0.571944
0.883687 0.0494796 0.465455
0.930907 -0.106515 0.349381
0.938488 -0.261402 0.225629
0.906864 -0.410385 0.0958242
0.835878 -0.547684 -0.0367475
0.726192 -0.667255 -0.165579
0.580845 -0.764189 -0.28042
0.406588 -0.836075 -0.368327
0.214551 -0.88349 -0.416429
0.0193367 -0.909184 -0.415946
-0.16349 -0.916336 -0.365512
-0.3212 -0.907143 -0.271887
-0.446732 -0.882392 -0.147699
-0.539757 -0.841785 -0.00776545
-0.605531 -0.784461 0.133987
-0.6525 -0.709514 0.266146
-0.689253 -0.616763 0.380176
-0.721792 -0.507675 0.470407
-0.752052 -0.385805 0.534389
-0.778138 -0.256383 0.573384
-0.796097 -0.125116 0.592094
-0.802172 0.00306079 0.597086
-0.794441 0.124532 0.594437
-0.773275 0.236937 0.588139
-0.740916 0.338425 0.580096
-0.701269 0.427 0.57087
-0.659647 0.500785 0.560428
-0.62199 0.558678 0.548642
-0.593724 0.600753 0.535339
-0.578798 0.628257 0.51989
-0.578999 0.643495 0.500674
-0.593426 0.649854 0.474905
-0.618202 0.651941 0.43909
-0.646715 0.655499 0.389975
-0.67056 0.666734 0.325292
-0.680635 0.690945 0.24358