# vtk DataFile Version 2.0
tmp/0.000.00-10.000.000.001.00102.vtk
ASCII
DATASET UNSTRUCTURED_GRID
POINTS 5100 float
0.5 0 0
1.5 0 0
2.5 0 0
3.5 0 0
4.5 0 0
5.5 0 0
6.5 0 0
7.5 0 0
8.5 0 0
9.5 0 0
10.5 0 0
11.5 0 0
12.5 0 0
13.5 0 0
14.5 0 0
15.5 0 0
16.5 0 0
17.5 0 0
18.5 0 0
19.5 0 0
20.5 0 0
21.5 0 0
22.5 0 0
23.5 0 0
24.5 0 0
25.5 0 0
26.5 0 0
27.5 0 0
28.5 0 0
29.5 0 0
30.5 0 0
31.5 0 0
32.5 0 0
33.5 0 0
34.5 0 0
35.5 0 0
36.5 0 0
37.5 0 0
38.5 0 0
39.5 0 0
40.5 0 0
41.5 0 0
42.5 0 0
43.5 0 0
44.5 0 0
45.5 0 0
46.5 0 0
47.5 0 0
48.5 0 0
49.5 0 0
0 0.5 0
1 0.5 0
2 0.5 0
3 0.5 0
4 0.5 0
5 0.5 0
6 0.5 0
7 0.5 0
8 0.5 0
9 0.5 0
10 0.5 0
11 0.5 0
12 0.5 0
13 0.5 0
14 0.5 0
15 0.5 0
16 0.5 0
17 0.5 0
18 0.5 0
19 0.5 0
20 0.5 0
21 0.5 0
22 0.5 0
23 0.5 0
24 0.5 0
25 0.5 0
26 0.5 0
27 0.5 0
28 0.5 0
29 0.5 0
30 0.5 0
31 0.5 0
32 0.5 0
33 0.5 0
34 0.5 0
35 0.5 0
36 0.5 0
37 0.5 0
38 0.5 0
39 0.5 0
40 0.5 0
41 0.5 0
42 0.5 0
43 0.5 0
44 0.5 0
45 0.5 0
46 0.5 0
47 0.5 0
48 0.5 0
49 0.5 0
50 0.5 0
0.5 1 0
1.5 1 0
2.5 1 0
3.5 1 0
4.5 1 0
5.5 1 0
6.5 1 0
7.5 1 0
8.5 1 0
9.5 1 0
10.5 1 0
11.5 1 0
12.5 1 0
13.5 1 0
14.5 1 0
15.5 1 0
16.5 1 0
17.5 1 0
18.5 1 0
19.5 1 0
20.5 1 0
21.5 1 0
22.5 1 0
23.5 1 0
24.5 1 0
25.5 1 0
26.5 1 0
27.5 1 0
28.5 1 0
29.5 1 0
30.5 1 0
31.5 1 0
32.5 1 0
33.5 1 0
34.5 1 0
35.5 1 0
36.5 1 0
37.5 1 0
38.5 1 0
39.5 1 0
40.5 1 0
41.5 1 0
42.5 1 0
43.5 1 0
44.5 1 0
45.5 1 0
46.5 1 0
47.5 1 0
48.5 1 0
49.5 1 0
0 1.5 0
1 1.5 0
2 1.5 0
3 1.5 0
4 1.5 0
5 1.5 0
6 1.5 0
7 1.5 0
8 1.5 0
9 1.5 0
10 1.5 0
11 1.5 0
12 1.5 0
13 1.5 0
14 1.5 0
15 1.5 0
16 1.5 0
17 1.5 0
18 1.5 0
19 1.5 0
20 1.5 0
21 1.5 0
22 1.5 0
23 1.5 0
24 1.5 0
25 1.5 0
26 1.5 0
27 1.5 0
28 1.5 0
29 1.5 0
30 1.5 0
31 1.5 0
32 1.5 0
33 1.5 0
34 1.5 0
35 1.5 0
36 1.5 0
37 1.5 0
38 1.5 0
39 1.5 0
40 1.5 0
41 1.5 0
42 1.5 0
43 1.5 0
44 1.5 0
45 1.5 0
46 1.5 0
47 1.5 0
48 1.5 0
49 1.5 0
50 1.5 0
0.5 2 0
1.5 2 0
2.5 2 0
3.5 2 0
4.5 2 0
5.5 2 0
6.5 2 0
7.5 2 0
8.5 2 0
9.5 2 0
10.5 2 0
11.5 2 0
12.5 2 0
13.5 2 0
14.5 2 0
15.5 2 0
16.5 2 0
17.5 2 0
18.5 2 0
19.5 2 0
20.5 2 0
21.5 2 0
22.5 2 0
23.5 2 0
24.5 2 0
25.5 2 0
26.5 2 0
27.5 2 0
28.5 2 0
29.5 2 0
30.5 2 0
31.5 2 0
32.5 2 0
33.5 2 0
34.5 2 0
35.5 2 0
36.5 2 0
37.5 2 0
38.5 2 0
39.5 2 0
40.5 2 0
41.5 2 0
42.5 2 0
43.5 2 0
44.5 2 0
45.5 2 0
46.5 2 0
47.5 2 0
48.5 2 0
49.5 2 0
0 2.5 0
1 2.5 0
2 2.5 0
3 2.5 0
4 2.5 0
5 2.5 0
6 2.5 0
7 2.5 0
8 2.5 0
9 2.5 0
10 2.5 0
11 2.5 0
12 2.5 0
13 2.5 0
14 2.5 0
15 2.5 0
16 2.5 0
17 2.5 0
18 2.5 0
19 2.5 0
20 2.5 0
21 2.5 0
22 2.5 0
23 2.5 0
24 2.5 0
25 2.5 0
26 2.5 0
27 2.5 0
28 2.5 0
29 2.5 0
30 2.5 0
31 2.5 0
32 2.5 0
33 2.5 0
34 2.5 0
35 2.5 0
36 2.5 0
37 2.5 0
38 2.5 0
39 2.5 0
40 2.5 0
41 2.5 0
42 2.5 0
43 2.5 0
44 2.5 0
45 2.5 0
46 2.5 0
47 2.5 0
48 2.5 0
49 2.5 0
50 2.5 0
0.5 3 0
1.5 3 0
2.5 3 0
3.5 3 0
4.5 3 0
5.5 3 0
6.5 3 0
7.5 3 0
8.5 3 0
9.5 3 0
10.5 3 0
11.5 3 0
12.5 3 0
13.5 3 0
14.5 3 0
15.5 3 0
16.5 3 0
17.5 3 0
18.5 3 0
19.5 3 0
20.5 3 0
21.5 3 0
22.5 3 0
23.5 3 0
24.5 3 0
25.5 3 0
26.5 3 0
27.5 3 0
28.5 3 0
29.5 3 0
30.5 3 0
31.5 3 0
32.5 3 0
33.5 3 0
34.5 3 0
35.5 3 0
36.5 3 0
37.5 3 0
38.5 3 0
39.5 3 0
40.5 3 0
41.5 3 0
42.5 3 0
43.5 3 0
44.5 3 0
45.5 3 0
46.5 3 0
47.5 3 0
48.5 3 0
49.5 3 0
0 3.5 0
1 3.5 0
2 3.5 0
3 3.5 0
4 3.5 0
5 3.5 0
6 3.5 0
7 3.5 0
8 3.5 0
9 3.5 0
10 3.5 0
11 3.5 0
12 3.5 0
13 3.5 0
14 3.5 0
15 3.5 0
16 3.5 0
17 3.5 0
18 3.5 0
19 3.5 0
20 3.5 0
21 3.5 0
22 3.5 0
23 3.5 0
24 3.5 0
25 3.5 0
26 3.5 0
27 3.5 0
28 3.5 0
29 3.5 0
30 3.5 0
31 3.5 0
32 3.5 0
33 3.5 0
34 3.5 0
35 3.5 0
36 3.5 0
37 3.5 0
38 3.5 0
39 3.5 0
40 3.5 0
41 3.5 0
42 3.5 0
43 3.5 0
44 3.5 0
45 3.5 0
46 3.5 0
47 3.5 0
48 3.5 0
49 3.5 0
50 3.5 0
0.5 4 0
1.5 4 0
2.5 4 0
3.5 4 0
4.5 4 0
5.5 4 0
6.5 4 0
7.5 4 0
8.5 4 0
9.5 4 0
10.5 4 0
11.5 4 0
12.5 4 0
13.5 4 0
14.5 4 0
15.5 4 0
16.5 4 0
17.5 4 0
18.5 4 0
19.5 4 0
20.5 4 0
21.5 4 0
22.5 4 0
23.5 4 0
24.5 4 0
25.5 4 0
26.5 4 0
27.5 4 0
28.5 4 0
29.5 4 0
30.5 4 0
31.5 4 0
32.5 4 0
33.5 4 0
34.5 4 0
35.5 4 0
36.5 4 0
37.5 4 0
38.5 4 0
39.5 4 0
40.5 4 0
41.5 4 0
42.5 4 0
43.5 4 0
44.5 4 0
45.5 4 0
46.5 4 0
47.5 4 0
48.5 4 0
49.5 4 0
0 4.5 0
1 4.5 0
2 4.5 0
3 4.5 0
4 4.5 0
5 4.5 0
6 4.5 0
7 4.5 0
8 4.5 0
9 4.5 0
10 4.5 0
11 4.5 0
12 4.5 0
13 4.5 0
14 4.5 0
15 4.5 0
16 4.5 0
17 4.5 0
18 4.5 0
19 4.5 0
20 4.5 0
21 4.5 0
22 4.5 0
23 4.5 0
24 4.5 0
25 4.5 0
26 4.5 0
27 4.5 0
28 4.5 0
29 4.5 0
30 4.5 0
31 4.5 0
32 4.5 0
33 4.5 0
34 4.5 0
35 4.5 0
36 4.5 0
37 4.5 0
38 4.5 0
39 4.5 0
40 4.5 0
41 4.5 0
42 4.5 0
43 4.5 0
44 4.5 0
45 4.5 0
46 4.5 0
47 4.5 0
48 4.5 0
49 4.5 0
50 4.5 0
0.5 5 0
1.5 5 0
2.5 5 0
3.5 5 0
4.5 5 0
5.5 5 0
6.5 5 0
7.5 5 0
8.5 5 0
9.5 5 0
10.5 5 0
11.5 5 0
12.5 5 0
13.5 5 0
14.5 5 0
15.5 5 0
16.5 5 0
17.5 5 0
18.5 5 0
19.5 5 0
20.5 5 0
21.5 5 0
22.5 5 0
23.5 5 0
24.5 5 0
25.5 5 0
26.5 5 0
27.5 5 0
28.5 5 0
29.5 5 0
30.5 5 0
31.5 5 0
32.5 5 0
33.5 5 0
34.5 5 0
35.5 5 0
36.5 5 0
37.5 5 0
38.5 5 0
39.5 5 0
40.5 5 0
41.5 5 0
42.5 5 0
43.5 5 0
44.5 5 0
45.5 5 0
46.5 5 0
47.5 5 0
48.5 5 0
49.5 5 0
0 5.5 0
1 5.5 0
2 5.5 0
3 5.5 0
4 5.5 0
5 5.5 0
6 5.5 0
7 5.5 0
8 5.5 0
9 5.5 0
10 5.5 0
11 5.5 0
12 5.5 0
13 5.5 0
14 5.5 0
15 5.5 0
16 5.5 0
17 5.5 0
18 5.5 0
19 5.5 0
20 5.5 0
21 5.5 0
22 5.5 0
23 5.5 0
24 5.5 0
25 5.5 0
26 5.5 0
27 5.5 0
28 5.5 0
29 5.5 0
30 5.5 0
31 5.5 0
32 5.5 0
33 5.5 0
34 5.5 0
35 5.5 0
36 5.5 0
37 5.5 0
38 5.5 0
39 5.5 0
40 5.5 0
41 5.5 0
42 5.5 0
43 5.5 0
44 5.5 0
45 5.5 0
46 5.5 0
47 5.5 0
48 5.5 0
49 5.5 0
50 5.5 0
0.5 6 0
1.5 6 0
2.5 6 0
3.5 6 0
4.5 6 0
5.5 6 0
6.5 6 0
7.5 6 0
8.5 6 0
9.5 6 0
10.5 6 0
11.5 6 0
12.5 6 0
13.5 6 0
14.5 6 0
15.5 6 0
16.5 6 0
17.5 6 0
18.5 6 0
19.5 6 0
20.5 6 0
21.5 6 0
22.5 6 0
23.5 6 0
24.5 6 0
25.5 6 0
26.5 6 0
27.5 6 0
28.5 6 0
29.5 6 0
30.5 6 0
31.5 6 0
32.5 6 0
33.5 6 0
34.5 6 0
35.5 6 0
36.5 6 0
37.5 6 0
38.5 6 0
39.5 6 0
40.5 6 0
41.5 6 0
42.5 6 0
43.5 6 0
44.5 6 0
45.5 6 0
46.5 6 0
47.5 6 0
48.5 6 0
49.5 6 0
0 6.5 0
1 6.5 0
2 6.5 0
3 6.5 0
4 6.5 0
5 6.5 0
6 6.5 0
7 6.5 0
8 6.5 0
9 6.5 0
10 6.5 0
11 6.5 0
12 6.5 0
13 6.5 0
14 6.5 0
15 6.5 0
16 6.5 0
17 6.5 0
18 6.5 0
19 6.5 0
20 6.5 0
21 6.5 0
22 6.5 0
23 6.5 0
24 6.5 0
25 6.5 0
26 6.5 0
27 6.5 0
28 6.5 0
29 6.5 0
30 6.5 0
31 6.5 0
32 6.5 0
33 6.5 0
34 6.5 0
35 6.5 0
36 6.5 0
37 6.5 0
38 6.5 0
39 6.5 0
40 6.5 0
41 6.5 0
42 6.5 0
43 6.5 0
44 6.5 0
45 6.5 0
46 6.5 0
47 6.5 0
48 6.5 0
49 6.5 0
50 6.5 0
0.5 7 0
1.5 7 0
2.5 7 0
3.5 7 0
4.5 7 0
5.5 7 0
6.5 7 0
7.5 7 0
8.5 7 0
9.5 7 0
10.5 7 0
11.5 7 0
12.5 7 0
13.5 7 0
14.5 7 0
15.5 7 0
16.5 7 0
17.5 7 0
18.5 7 0
19.5 7 0
20.5 7 0
21.5 7 0
22.5 7 0
23.5 7 0
24.5 7 0
25.5 7 0
26.5 7 0
27.5 7 0
28.5 7 0
29.5 7 0
30.5 7 0
31.5 7 0
32.5 7 0
33.5 7 0
34.5 7 0
35.5 7 0
36.5 7 0
37.5 7 0
38.5 7 0
39.5 7 0
40.5 7 0
41.5 7 0
42.5 7 0
43.5 7 0
44.5 7 0
45.5 7 0
46.5 7 0
47.5 7 0
48.5 7 0
49.5 7 0
0 7.5 0
1 7.5 0
2 7.5 0
3 7.5 0
4 7.5 0
5 7.5 0
6 7.5 0
7 7.5 0
8 7.5 0
9 7.5 0
10 7.5 0
11 7.5 0
12 7.5 0
13 7.5 0
14 7.5 0
15 7.5 0
16 7.5 0
17 7.5 0
18 7.5 0
19 7.5 0
20 7.5 0
21 7.5 0
22 7.5 0
23 7.5 0
24 7.5 0
25 7.5 0
26 7.5 0
27 7.5 0
28 7.5 0
29 7.5 0
30 7.5 0
31 7.5 0
32 7.5 0
33 7.5 0
34 7.5 0
35 7.5 0
36 7.5 0
37 7.5 0
38 7.5 0
39 7.5 0
40 7.5 0
41 7.5 0
42 7.5 0
43 7.5 0
44 7.5 0
45 7.5 0
46 7.5 0
47 7.5 0
48 7.5 0
49 7.5 0
50 7.5 0
0.5 8 0
1.5 8 0
2.5 8 0
3.5 8 0
4.5 8 0
5.5 8 0
6.5 8 0
7.5 8 0
8.5 8 0
9.5 8 0
10.5 8 0
11.5 8 0
12.5 8 0
13.5 8 0
14.5 8 0
15.5 8 0
16.5 8 0
17.5 8 0
18.5 8 0
19.5 8 0
20.5 8 0
21.5 8 0
22.5 8 0
23.5 8 0
24.5 8 0
25.5 8 0
26.5 8 0
27.5 8 0
28.5 8 0
29.5 8 0
30.5 8 0
31.5 8 0
32.5 8 0
33.5 8 0
34.5 8 0
35.5 8 0
36.5 8 0
37.5 8 0
38.5 8 0
39.5 8 0
40.5 8 0
41.5 8 0
42.5 8 0
43.5 8 0
44.5 8 0
45.5 8 0
46.5 8 0
47.5 8 0
48.5 8 0
49.5 8 0
0 8.5 0
1 8.5 0
2 8.5 0
3 8.5 0
4 8.5 0
5 8.5 0
6 8.5 0
7 8.5 0
8 8.5 0
9 8.5 0
10 8.5 0
11 8.5 0
12 8.5 0
13 8.5 0
14 8.5 0
15 8.5 0
16 8.5 0
17 8.5 0
18 8.5 0
19 8.5 0
20 8.5 0
21 8.5 0
22 8.5 0
23 8.5 0
24 8.5 0
25 8.5 0
26 8.5 0
27 8.5 0
28 8.5 0
29 8.5 0
30 8.5 0
31 8.5 0
32 8.5 0
33 8.5 0
34 8.5 0
35 8.5 0
36 8.5 0
37 8.5 0
38 8.5 0
39 8.5 0
40 8.5 0
41 8.5 0
42 8.5 0
43 8.5 0
44 8.5 0
45 8.5 0
46 8.5 0
47 8.5 0
48 8.5 0
49 8.5 0
50 8.5 0
0.5 9 0
1.5 9 0
2.5 9 0
3.5 9 0
4.5 9 0
5.5 9 0
6.5 9 0
7.5 9 0
8.5 9 0
9.5 9 0
10.5 9 0
11.5 9 0
12.5 9 0
13.5 9 0
14.5 9 0
15.5 9 0
16.5 9 0
17.5 9 0
18.5 9 0
19.5 9 0
20.5 9 0
21.5 9 0
22.5 9 0
23.5 9 0
24.5 9 0
25.5 9 0
26.5 9 0
27.5 9 0
28.5 9 0
29.5 9 0
30.5 9 0
31.5 9 0
32.5 9 0
33.5 9 0
34.5 9 0
35.5 9 0
36.5 9 0
37.5 9 0
38.5 9 0
39.5 9 0
40.5 9 0
41.5 9 0
42.5 9 0
43.5 9 0
44.5 9 0
45.5 9 0
46.5 9 0
47.5 9 0
48.5 9 0
49.5 9 0
0 9.5 0
1 9.5 0
2 9.5 0
3 9.5 0
4 9.5 0
5 9.5 0
6 9.5 0
7 9.5 0
8 9.5 0
9 9.5 0
10 9.5 0
11 9.5 0
12 9.5 0
13 9.5 0
14 9.5 0
15 9.5 0
16 9.5 0
17 9.5 0
18 9.5 0
19 9.5 0
20 9.5 0
21 9.5 0
22 9.5 0
23 9.5 0
24 9.5 0
25 9.5 0
26 9.5 0
27 9.5 0
28 9.5 0
29 9.5 0
30 9.5 0
31 9.5 0
32 9.5 0
33 9.5 0
34 9.5 0
35 9.5 0
36 9.5 0
37 9.5 0
38 9.5 0
39 9.5 0
40 9.5 0
41 9.5 0
42 9.5 0
43 9.5 0
44 9.5 0
45 9.5 0
46 9.5 0
47 9.5 0
48 9.5 0
49 9.5 0
50 9.5 0
0.5 10 0
1.5 10 0
2.5 10 0
3.5 10 0
4.5 10 0
5.5 10 0
6.5 10 0
7.5 10 0
8.5 10 0
9.5 10 0
10.5 10 0
11.5 10 0
12.5 10 0
13.5 10 0
14.5 10 0
15.5 10 0
16.5 10 0
17.5 10 0
18.5 10 0
19.5 10 0
20.5 10 0
21.5 10 0
22.5 10 0
23.5 10 0
24.5 10 0
25.5 10 0
26.5 10 0
27.5 10 0
28.5 10 0
29.5 10 0
30.5 10 0
31.5 10 0
32.5 10 0
33.5 10 0
34.5 10 0
35.5 10 0
36.5 10 0
37.5 10 0
38.5 10 0
39.5 10 0
40.5 10 0
41.5 10 0
42.5 10 0
43.5 10 0
44.5 10 0
45.5 10 0
46.5 10 0
47.5 10 0
48.5 10 0
49.5 10 0
0 10.5 0
1 10.5 0
2 10.5 0
3 10.5 0
4 10.5 0
5 10.5 0
6 10.5 0
7 10.5 0
8 10.5 0
9 10.5 0
10 10.5 0
11 10.5 0
12 10.5 0
13 10.5 0
14 10.5 0
15 10.5 0
16 10.5 0
17 10.5 0
18 10.5 0
19 10.5 0
20 10.5 0
21 10.5 0
22 10.5 0
23 10.5 0
24 10.5 0
25 10.5 0
26 10.5 0
27 10.5 0
28 10.5 0
29 10.5 0
30 10.5 0
31 10.5 0
32 10.5 0
33 10.5 0
34 10.5 0
35 10.5 0
36 10.5 0
37 10.5 0
38 10.5 0
39 10.5 0
40 10.5 0
41 10.5 0
42 10.5 0
43 10.5 0
44 10.5 0
45 10.5 0
46 10.5 0
47 10.5 0
48 10.5 0
49 10.5 0
50 10.5 0
[...]
POINT_DATA 5100
VECTORS velocity float
0.576529 0.539577 0.613572
0.569387 0.47821 0.668665
0.574027 0.414626 0.706101
0.604262 0.329123 0.725635
0.653471 0.213027 0.726357
0.707314 0.0674117 0.703678
0.749923 -0.0988319 0.654101
0.768884 -0.271577 0.578846
0.758453 -0.435867 0.484529
0.719743 -0.580367 0.380979
0.658312 -0.699502 0.278069
0.581079 -0.792879 0.183548
0.494194 -0.863294 0.10245
0.402264 -0.914754 0.0375468
0.308476 -0.95118 -0.00991556
0.215093 -0.975788 -0.0396473
0.123901 -0.99093 -0.0520179
0.0364681 -0.998183 -0.0479627
-0.0458164 -0.99853 -0.0289645
-0.121841 -0.992545 0.00299534
-0.19091 -0.98055 0.0455586
-0.252828 -0.96272 0.0961709
-0.307892 -0.939156 0.152274
-0.356809 -0.909928 0.211467
-0.400542 -0.875099 0.271603
-0.440164 -0.834747 0.330837
-0.47671 -0.788983 0.387624
-0.511069 -0.737967 0.440696
-0.543907 -0.681921 0.489029
-0.575624 -0.621147 0.531821
-0.606346 -0.556041 0.568475
-0.635934 -0.487111 0.59859
-0.664035 -0.414979 0.621973
-0.690136 -0.340387 0.63863
-0.713653 -0.264182 0.648773
-0.734017 -0.187289 0.652796
-0.75076 -0.110667 0.651239
-0.763591 -0.0352563 0.644737
-0.772439 0.038089 0.633945
-0.777469 0.108656 0.619464
-0.779057 0.175927 0.601764
-0.77774 0.23961 0.581126
-0.774147 0.299654 0.557588
-0.768901 0.356245 0.530924
-0.762521 0.409792 0.500632
-0.755289 0.46091 0.46594
-0.747089 0.510444 0.425799
-0.737197 0.559555 0.378732
-0.724274 0.609706 0.322003
-0.706312 0.662504 0.249424
0.539577 0.576529 0.613572
0.546611 0.512897 0.661932
0.576229 0.442234 0.687306
0.627454 0.354588 0.693231
0.693136 0.240114 0.679638
0.759914 0.0960326 0.642891
0.811211 -0.071171 0.580406
0.833187 -0.247886 0.494319
0.819359 -0.417961 0.392377
0.77179 -0.568128 0.285607
0.698551 -0.691328 0.184641
0.60967 -0.786683 0.0971191
0.513996 -0.857366 0.0270519
0.417843 -0.90819 -0.0244653
0.324967 -0.943937 -0.0581273
0.237145 -0.968538 -0.0754693
0.154878 -0.984829 -0.0782621
0.0779715 -0.994619 -0.0682192
0.00595094 -0.998881 -0.0469156
-0.0616888 -0.99797 -0.0158248
-0.125365 -0.99183 0.023601
-0.185383 -0.98018 0.0698605
-0.241968 -0.962663 0.121371
-0.295313 -0.938959 0.176483
-0.345624 -0.908851 0.233525
-0.393135 -0.872259 0.290877
-0.438097 -0.829243 0.347026
-0.480746 -0.779991 0.400622
-0.521256 -0.724799 0.450509
-0.559698 -0.664065 0.495738
-0.596008 -0.59828 0.53557
-0.629975 -0.528032 0.569486
-0.661252 -0.454015 0.597173
-0.689393 -0.377035 0.618532
-0.713908 -0.298005 0.633662
-0.734341 -0.217927 0.642846
-0.750341 -0.137854 0.646517
-0.761736 -0.0588382 0.645211
-0.768573 0.0181373 0.639505
-0.771141 0.0922223 0.629949
-0.769949 0.16276 0.616999
-0.76568 0.229328 0.600952
-0.759122 0.291764 0.5819
-0.751082 0.350157 0.559702
-0.742288 0.404838 0.533961
-0.733282 0.456352 0.504024
-0.724272 0.505463 0.468974
-0.71492 0.553233 0.427577
-0.704004 0.601265 0.377968
-0.68907 0.651828 0.316707
-0.662504 0.706312 0.249424
0.512897 0.546611 0.661932
0.543186 0.49009 0.681734
0.606731 0.408571 0.68187
0.685981 0.302213 0.66189
0.767421 0.167208 0.618956
0.834426 0.00671966 0.551079
0.871695 -0.168361 0.46022
0.870279 -0.342863 0.353637
0.830018 -0.502373 0.242263
0.758235 -0.637357 0.13732
0.665963 -0.74448 0.0473582
0.564152 -0.825352 -0.0229412
0.461402 -0.884235 -0.0723669
0.363308 -0.926064 -0.102047
0.272784 -0.95526 -0.114307
0.190755 -0.975246 -0.111837
0.116842 -0.988383 -0.0971982
0.0499294 -0.996111 -0.0725943
-0.0114192 -0.999141 -0.0398259
-0.0686733 -0.997639 -0.000344667
-0.123146 -0.991384 0.0446389
-0.175881 -0.97991 0.0940354
-0.227605 -0.962629 0.146772
-0.278725 -0.938947 0.201721
-0.329355 -0.908364 0.257681
-0.379373 -0.870554 0.313388
-0.428479 -0.825407 0.367572
-0.476247 -0.77305 0.419025
-0.522172 -0.713834 0.466667
-0.565692 -0.648306 0.5096
-0.606215 -0.577183 0.547141
-0.643131 -0.501323 0.578841
-0.67584 -0.421706 0.604486
-0.703789 -0.339419 0.62408
-0.726524 -0.255631 0.637821
-0.743749 -0.171558 0.646069
-0.755383 -0.0884104 0.649292
-0.761593 -0.00732969 0.648014
-0.762811 0.0706834 0.642746
-0.75971 0.144833 0.633927
-0.753154 0.214576 0.621865
-0.744124 0.27965 0.606692
-0.733634 0.340071 0.588331
-0.722631 0.396114 0.566478
-0.711902 0.448284 0.54059
-0.701948 0.497294 0.509869
-0.692795 0.544118 0.473256
-0.68357 0.590239 0.429361
-0.671692 0.637995 0.376553
-0.651828 0.68907 0.316707
0.47821 0.569387 0.668665
0.49009 0.543186 0.681734
0.55201 0.482211 0.680263
0.637313 0.392127 0.663377
0.73087 0.273323 0.625399
0.816613 0.125861 0.563296
0.877683 -0.04322 0.477288
0.901378 -0.220862 0.372475
0.882923 -0.391962 0.258481
0.826172 -0.543944 0.146847
0.741099 -0.669695 0.0477583
0.639808 -0.767863 -0.0321323
0.533192 -0.841181 -0.0901178
0.429219 -0.894283 -0.126604
0.33267 -0.932006 -0.143861
0.245665 -0.958459 -0.14493
0.168415 -0.976716 -0.132896
0.099926 -0.988842 -0.110484
0.038542 -0.996057 -0.0799046
-0.0176464 -0.998926 -0.0428498
-0.0705205 -0.99751 -0.000579611
-0.121736 -0.991498 0.045948
-0.172596 -0.98031 0.0959318
-0.22397 -0.963201 0.148595
-0.276271 -0.939379 0.203082
-0.329468 -0.908117 0.258407
-0.383143 -0.868879 0.31345
-0.436574 -0.821403 0.367014
-0.488844 -0.765761 0.417902
-0.538937 -0.702359 0.465015
-0.585826 -0.631911 0.507441
-0.62854 -0.555385 0.544504
-0.666214 -0.473943 0.575793
-0.698124 -0.388887 0.601156
-0.723736 -0.301614 0.620673
-0.742741 -0.21356 0.634609
-0.7551 -0.126146 0.643359
-0.76107 -0.0407094 0.647391
-0.761205 0.0415739 0.647178
-0.756328 0.119754 0.643139
-0.747473 0.193161 0.635589
-0.735805 0.261435 0.624694
-0.722527 0.324521 0.610443
-0.70878 0.382648 0.592632
-0.695553 0.436281 0.570846
-0.683582 0.486087 0.544459
-0.673199 0.532933 0.512626
-0.663988 0.57805 0.474318
-0.65387 0.623445 0.428686
-0.637995 0.671692 0.376553
-0.609706 0.724274 0.322003
0.442234 0.576229 0.687306
0.482211 0.55201 0.680263
0.568234 0.484714 0.664953
0.669898 0.386867 0.633696
0.772041 0.258337 0.580702
0.857631 0.102305 0.503987
0.911097 -0.0717216 0.405903
0.922695 -0.249876 0.293592
0.891 -0.417807 0.177641
0.822517 -0.56451 0.0692412
0.728709 -0.684448 -0.0226875
0.622126 -0.777363 -0.0930946
0.513397 -0.846528 -0.140762
0.409862 -0.896685 -0.167239
0.315557 -0.932529 -0.175538
0.231881 -0.957934 -0.1691
0.158419 -0.975735 -0.151144
0.0936616 -0.987807 -0.124358
0.0355485 -0.995235 -0.090799
-0.0181419 -0.998485 -0.0519428
-0.0695183 -0.997542 -0.00879761
-0.120386 -0.992002 0.037942
-0.172113 -0.981163 0.0877319
-0.225547 -0.964117 0.140025
-0.28097 -0.939872 0.194153
-0.338112 -0.907499 0.249252
-0.396208 -0.866283 0.30426
-0.454115 -0.815865 0.357971
-0.51046 -0.756327 0.409146
-0.563793 -0.688205 0.45663
-0.612726 -0.612449 0.499473
-0.656034 -0.530339 0.536992
-0.692729 -0.443381 0.568806
-0.722106 -0.353219 0.594811
-0.743773 -0.26155 0.615137
-0.757682 -0.170046 0.630081
-0.764138 -0.0802754 0.640038
-0.763792 0.00637836 0.645431
-0.7576 0.0887882 0.646652
-0.746759 0.166142 0.644009
-0.732613 0.23797 0.63769
-0.71655 0.304146 0.627735
-0.699898 0.36485 0.614025
-0.683829 0.420519 0.596272
-0.669271 0.471785 0.574017
-0.656794 0.519438 0.546631
-0.646362 0.564496 0.513382
-0.636601 0.60849 0.473792
-0.623445 0.65387 0.428686
-0.601265 0.704004 0.377968
0.414626 0.574027 0.706101
0.408571 0.606731 0.68187
0.484714 0.568234 0.664953
0.59023 0.494703 0.637885
0.704449 0.389186 0.593537
0.811199 0.252614 0.527393
0.893834 0.0906769 0.439133
0.93904 -0.0857807 0.332935
0.940031 -0.263087 0.217089
0.897945 -0.428059 0.10228
0.820927 -0.571031 -0.00107551
0.721194 -0.68746 -0.0853057
0.611389 -0.777614 -0.146695
0.501811 -0.844922 -0.185184
0.399239 -0.894052 -0.203171
0.307071 -0.929525 -0.204183
0.226099 -0.955017 -0.191888
0.155387 -0.9732 -0.16952
0.09301 -0.985824 -0.13964
0.0365979 -0.993893 -0.104105
-0.016286 -0.997808 -0.0641439
-0.0678824 -0.997482 -0.020511
-0.120051 -0.992418 0.0263472
-0.174137 -0.981776 0.0761103
-0.230874 -0.964472 0.128416
-0.290341 -0.939316 0.182723
-0.351961 -0.90519 0.238232
-0.414583 -0.861253 0.293878
-0.476629 -0.807118 0.348405
-0.536291 -0.742964 0.400495
-0.591746 -0.669552 0.448929
-0.641334 -0.588149 0.492718
-0.683696 -0.500401 0.531185
-0.717851 -0.408187 0.56398
-0.743233 -0.313484 0.591043
-0.759715 -0.21825 0.612535
-0.767599 -0.124325 0.628757
-0.767596 -0.0333393 0.640066
-0.760775 0.0533725 0.646817
-0.748486 0.134829 0.6493
-0.732248 0.210434 0.647711
-0.713642 0.279977 0.642128
-0.694185 0.343585 0.6325
-0.675235 0.401669 0.618644
-0.657895 0.454839 0.600246
-0.642927 0.503848 0.576873
-0.630581 0.549577 0.548026
-0.620097 0.593187 0.513428
-0.60849 0.636601 0.473792
-0.590239 0.68357 0.429361
-0.559555 0.737197 0.378732
0.354588 0.627454 0.693231
0.392127 0.637313 0.663377
0.494703 0.59023 0.637885
0.616301 0.510139 0.599942
0.739332 0.39717 0.543732
0.847214 0.254174 0.466502
0.924923 0.0886397 0.369675
0.96192 -0.0882607 0.258688
0.954038 -0.263789 0.142223
0.904147 -0.426127 0.0305511
0.821223 -0.566682 -0.0668109
0.717707 -0.681445 -0.143282
0.606121 -0.770791 -0.196211
0.496427 -0.838026 -0.226434
0.394938 -0.887617 -0.236982
0.304536 -0.92388 -0.231739
0.225528 -0.950331 -0.214494
0.156563 -0.969527 -0.18843
0.0953962 -0.983147 -0.155951
0.0394279 -0.992148 -0.118695
-0.0139236 -0.996883 -0.0776517
-0.0669677 -0.997198 -0.0333344
-0.121559 -0.992485 0.0140327
-0.17896 -0.981752 0.0643176
-0.239733 -0.963727 0.117297
-0.30369 -0.937024 0.172507
-0.369895 -0.90037 0.229154
-0.436774 -0.852857 0.286119
-0.502302 -0.79416 0.342055
-0.56427 -0.724664 0.395552
-0.620546 -0.645452 0.445325
-0.669307 -0.558186 0.490364
-0.70918 -0.464921 0.530012
-0.73932 -0.367906 0.56396
-0.759429 -0.269416 0.592185
-0.769739 -0.171603 0.614861
-0.770978 -0.0763861 0.632265
-0.764298 0.0146502 0.644697
-0.751185 0.100321 0.652424
-0.733334 0.179878 0.655641
-0.712521 0.253003 0.654449
-0.690466 0.319765 0.64885
-0.668719 0.380544 0.63875
-0.648564 0.435938 0.623958
-0.630937 0.486683 0.604201
-0.616311 0.533592 0.579172
-0.604378 0.577603 0.548727
-0.593187 0.620097 0.513428
-0.57805 0.663988 0.474318
-0.553233 0.71492 0.427577
0.329123 0.604262 0.725635
0.302213 0.685981 0.66189
0.386867 0.669898 0.633696
0.510139 0.616301 0.599942
0.644384 0.52923 0.551982
0.77241 0.40944 0.485533
0.878467 0.261796 0.399699
0.950072 0.0947685 0.297292
0.979517 -0.0809871 0.184357
0.964675 -0.254132 0.0694199
0.909383 -0.414232 -0.0378792
0.822817 -0.553504 -0.12886
0.717278 -0.668117 -0.197816
0.605032 -0.75824 -0.242915
0.495724 -0.826847 -0.265673
0.395293 -0.878102 -0.269593
0.306231 -0.9161 -0.25881
0.228471 -0.94422 -0.237168
0.160351 -0.964945 -0.20777
0.0993857 -0.979922 -0.172846
0.0428115 -0.99008 -0.133823
-0.0120442 -0.995736 -0.0914613
-0.0675126 -0.996655 -0.0460526
-0.125398 -0.992104 0.0023761
-0.186827 -0.980916 0.0538479
-0.252138 -0.961619 0.108235
-0.320812 -0.932643 0.165096
-0.391497 -0.892602 0.223588
-0.462155 -0.840602 0.28249
-0.530315 -0.776493 0.340331
-0.593405 -0.700979 0.395599
-0.649081 -0.615569 0.446956
-0.695472 -0.52238 0.493395
-0.731331 -0.423894 0.534293
-0.756083 -0.322707 0.569385
-0.769809 -0.221325 0.598672
-0.773195 -0.122003 0.622322
-0.767442 -0.0266268 0.640566
-0.75415 0.0633722 0.653637
-0.735187 0.147057 0.66172
-0.712527 0.223979 0.664935
-0.688104 0.294128 0.663326
-0.663677 0.357848 0.65687
-0.640721 0.415726 0.645483
-0.620348 0.468496 0.629031
-0.60322 0.516947 0.607364
-0.589361 0.561903 0.580448
-0.577603 0.604378 0.548727
-0.564496 0.646362 0.513382
-0.544118 0.692795 0.473256
-0.510444 0.747089 0.425799
0.240114 0.693136 0.679638
0.273323 0.73087 0.625399
0.389186 0.704449 0.593537
0.52923 0.644384 0.551982
0.672331 0.550223 0.495203
0.8017 0.424694 0.420609
0.903653 0.274299 0.328894
0.968695 0.107678 0.223687
0.99164 -0.0656568 0.111082
0.971755 -0.235991 -0.000838059
0.913225 -0.3942 -0.103085
0.824983 -0.533092 -0.18766
0.718924 -0.64876 -0.249516
0.606961 -0.740933 -0.28743
0.498441 -0.812089 -0.303427
0.399018 -0.866005 -0.301366
0.310899 -0.906531 -0.285557
0.233753 -0.936925 -0.259868
0.165692 -0.959624 -0.227304
0.104061 -0.976267 -0.189929
0.0459858 -0.987773 -0.148963
-0.0112538 -0.994414 -0.104951
-0.0699719 -0.995863 -0.0579779
-0.131879 -0.991234 -0.00789633
-0.197918 -0.979165 0.0454403
-0.268132 -0.957972 0.101955
-0.341603 -0.925921 0.161174
-0.416499 -0.881577 0.222151
-0.490281 -0.824164 0.283512
-0.560043 -0.753831 0.343643
-0.622923 -0.671728 0.400934
-0.676475 -0.579875 0.454011
-0.718925 -0.48089 0.501887
-0.749298 -0.377669 0.543984
-0.767422 -0.273096 0.580071
-0.773866 -0.169819 0.610158
-0.769834 -0.0700825 0.634385
-0.757022 0.02438 0.652934
-0.737458 0.112397 0.665975
-0.713321 0.193355 0.673637
-0.686769 0.267144 0.676005
-0.659785 0.334055 0.67312
-0.634056 0.394665 0.664991
-0.610878 0.449709 0.651605
-0.591094 0.499981 0.632951
-0.574974 0.546259 0.609103
-0.561903 0.589361 0.580448
-0.549577 0.630581 0.548026
-0.532933 0.673199 0.512626
-0.505463 0.724272 0.468974
0.213027 0.653471 0.726357
0.167208 0.767421 0.618956
0.258337 0.772041 0.580702
0.39717 0.739332 0.543732
0.550223 0.672331 0.495203
0.698189 0.571442 0.431262
0.82571 0.441626 0.350954
0.922017 0.290398 0.256034
0.980585 0.125849 0.150383
0.998237 -0.0440272 0.039803
0.975066 -0.211189 -0.0681523
0.915173 -0.367716 -0.165054
0.826946 -0.50686 -0.24342
0.721683 -0.624473 -0.298675
0.610847 -0.719684 -0.330033
0.503489 -0.794338 -0.339893
0.405048 -0.85174 -0.332377
0.317543 -0.89547 -0.31193
0.240468 -0.928662 -0.28242
0.171789 -0.953729 -0.246757
0.10874 -0.972312 -0.206846
0.0483841 -0.985322 -0.163707
-0.01201 -0.992979 -0.11768
-0.0747017 -0.99484 -0.0686565
-0.141262 -0.989838 -0.0163318
-0.212386 -0.976386 0.0395302
-0.287746 -0.952591 0.0988557
-0.36594 -0.916592 0.161082
-0.444591 -0.866989 0.225099
-0.520638 -0.803252 0.289349
-0.590781 -0.725971 0.352058
-0.651965 -0.636858 0.411526
-0.701786 -0.538516 0.466365
-0.73873 -0.434069 0.515618
-0.762243 -0.326785 0.558746
-0.772686 -0.21975 0.595539
-0.771203 -0.115637 0.625999
-0.759556 -0.016551 0.650232
-0.739923 0.0760418 0.668379
-0.714695 0.161319 0.680579
-0.686266 0.239037 0.68695
-0.656863 0.309421 0.687597
-0.628398 0.373024 0.682619
-0.602372 0.43059 0.672116
-0.579808 0.482925 0.656206
-0.561182 0.53081 0.635071
-0.546259 0.574974 0.609103
-0.533592 0.616311 0.579172
-0.519438 0.656794 0.546631
-0.497294 0.701948 0.509869
-0.46091 0.755289 0.46594
0.0960326 0.759914 0.642891
0.125861 0.816613 0.563296
0.252614 0.811199 0.527393
0.40944 0.77241 0.485533
0.571442 0.698189 0.431262
0.720428 0.591428 0.362211
0.843582 0.459024 0.278688
0.933379 0.308774 0.182927
0.9859 0.147696 0.0786617
0.999427 -0.0178834 -0.0287341
0.974461 -0.181529 -0.132185
0.914758 -0.336417 -0.2237
0.827977 -0.476167 -0.296175
0.724665 -0.596311 -0.34536
0.615736 -0.69527 -0.370767
0.509921 -0.774154 -0.375054
0.412486 -0.835716 -0.362539
0.325336 -0.883217 -0.337765
0.247874 -0.919663 -0.304596
0.17799 -0.94744 -0.265853
0.112863 -0.968197 -0.223288
0.0495328 -0.982832 -0.17773
-0.0147069 -0.991494 -0.129317
-0.0820194 -0.993593 -0.0777529
-0.153779 -0.987847 -0.0225994
-0.230356 -0.972424 0.0364332
-0.310961 -0.94523 0.0992203
-0.393616 -0.904337 0.165047
-0.475343 -0.8485 0.23259
-0.552561 -0.777582 0.300071
-0.621653 -0.692759 0.365557
-0.679512 -0.596408 0.427273
-0.723945 -0.491749 0.483825
-0.753869 -0.38239 0.534285
-0.769306 -0.271889 0.578139
-0.771262 -0.163417 0.615183
-0.761516 -0.0595359 0.645406
-0.742388 0.0379173 0.668896
-0.716483 0.127849 0.685789
-0.686451 0.209841 0.696241
-0.654781 0.284025 0.700422
-0.623635 0.35092 0.698523
-0.594733 0.411274 0.690758
-0.569291 0.465915 0.677371
-0.547971 0.515647 0.658663
-0.53081 0.561182 0.635071
-0.516947 0.60322 0.607364
-0.503848 0.642927 0.576873
-0.486087 0.683582 0.544459
-0.456352 0.733282 0.504024
0.0674117 0.707314 0.703678
0.00671966 0.834426 0.551079
0.102305 0.857631 0.503987
0.254174 0.847214 0.466502
0.424694 0.8017 0.420609
0.591428 0.720428 0.362211
0.738079 0.609083 0.290273
0.855095 0.475868 0.205821
0.938056 0.328186 0.111104
0.985107 0.171681 0.00951908
0.995514 0.0110407 -0.0939655
0.969925 -0.148766 -0.192652
0.911629 -0.301919 -0.278885
0.827465 -0.442377 -0.345839
0.727107 -0.565346 -0.389486
0.620807 -0.668499 -0.409521
0.516923 -0.752131 -0.408765
0.420562 -0.818366 -0.391669
0.333574 -0.870098 -0.362847
0.255343 -0.910175 -0.326161
0.183744 -0.940949 -0.284346
0.11595 -0.96407 -0.239006
0.0490183 -0.980408 -0.19078
-0.0196947 -0.990012 -0.139601
-0.0922064 -0.992105 -0.0849985
-0.169624 -0.985155 -0.0264215
-0.251899 -0.967068 0.0364261
-0.33767 -0.935578 0.103306
-0.424297 -0.888788 0.173286
-0.508158 -0.825749 0.244775
-0.585198 -0.746886 0.315759
-0.651604 -0.654099 0.384144
-0.704392 -0.550501 0.448087
-0.741776 -0.439931 0.50619
-0.763285 -0.326414 0.557539
-0.769659 -0.213682 0.601635
-0.762634 -0.104849 0.638276
-0.744644 -0.0022192 0.667458
-0.71852 0.0927594 0.689293
-0.687188 0.179435 0.703971
-0.653427 0.257809 0.711736
-0.619672 0.328347 0.712878
-0.587887 0.391794 0.707733
-0.559491 0.449006 0.696681
-0.535328 0.500819 0.68015
-0.515647 0.547971 0.658663
-0.499981 0.591094 0.632951
-0.486683 0.630937 0.604201
-0.471785 0.669271 0.574017
-0.448284 0.711902 0.54059
-0.409792 0.762521 0.500632
-0.071171 0.811211 0.580406
-0.04322 0.877683 0.477288
0.0906769 0.893834 0.439133
0.261796 0.878467 0.399699
0.441626 0.82571 0.350954
0.609083 0.738079 0.290273
0.750752 0.623729 0.217562
0.860561 0.491391 0.134048
0.93673 0.347558 0.0417291
0.978902 0.196408 -0.0563437
0.986977 0.0411399 -0.155509
0.961614 -0.114564 -0.249346
0.905619 -0.265795 -0.330466
0.824976 -0.406862 -0.392272
0.728405 -0.532692 -0.430889
0.625378 -0.640227 -0.446107
0.523803 -0.728907 -0.440822
0.428616 -0.800164 -0.419554
0.341652 -0.856464 -0.386967
0.262333 -0.900463 -0.346912
0.188574 -0.934457 -0.302044
0.117587 -0.960079 -0.253814
0.0464821 -0.978144 -0.202665
-0.0272757 -0.988563 -0.148324
-0.105497 -0.990324 -0.0901548
-0.188934 -0.981604 -0.0275297
-0.277002 -0.960045 0.0397956
-0.36765 -0.923269 0.111395
-0.457489 -0.869534 0.186049
-0.542252 -0.798369 0.261856
-0.617504 -0.710933 0.336545
-0.679406 -0.609963 0.407863
-0.72531 -0.499347 0.473896
-0.754051 -0.383502 0.533229
-0.765945 -0.266756 0.584952
-0.762574 -0.152872 0.628579
-0.746448 -0.0447398 0.663938
-0.720622 0.05573 0.691085
-0.688331 0.14757 0.710228
-0.652679 0.230597 0.721689
-0.616409 0.305195 0.725876
-0.581752 0.372097 0.723262
-0.550349 0.432183 0.714377
-0.523228 0.486333 0.699795
-0.500819 0.535328 0.68015
-0.482925 0.579808 0.656206
-0.468496 0.620348 0.629031
-0.454839 0.657895 0.600246
-0.436281 0.695553 0.570846
-0.404838 0.742288 0.533961
-0.0988319 0.749923 0.654101
-0.168361 0.871695 0.46022
-0.0717216 0.911097 0.405903
0.0886397 0.924923 0.369675
0.274299 0.903653 0.328894
0.459024 0.843582 0.278688
0.623729 0.750752 0.217562
0.75855 0.635082 0.14585
0.860651 0.505077 0.0646278
0.930289 0.366014 -0.0244243
0.968119 0.220681 -0.118511
0.974434 0.0709994 -0.213161
0.949859 -0.0804352 -0.302155
0.896756 -0.22953 -0.378345
0.820278 -0.370968 -0.435347
0.72813 -0.499484 -0.469406
0.628909 -0.611353 -0.480334
0.529982 -0.705166 -0.471021
0.436081 -0.781612 -0.446
0.349046 -0.842679 -0.409949
0.268376 -0.890789 -0.366699
0.192072 -0.928152 -0.318814
0.11742 -0.956354 -0.267582
0.0416216 -0.976114 -0.213235
-0.0377017 -0.987149 -0.155294
-0.122075 -0.988157 -0.0929752
-0.211778 -0.976982 -0.0256241
-0.305551 -0.951021 0.0468773
-0.400527 -0.907879 0.12383
-0.492511 -0.846142 0.203656
-0.576637 -0.766013 0.284102
-0.64824 -0.669546 0.36262
-0.703681 -0.560403 0.436786
-0.740889 -0.44324 0.5046
-0.759542 -0.322959 0.564618
-0.760911 -0.204047 0.615938
-0.747498 -0.0901163 0.658122
-0.722576 0.0163265 0.691098
-0.689718 0.113884 0.715067
-0.652403 0.202111 0.730425
-0.613729 0.281269 0.737715
-0.57623 0.352055 0.737575
-0.541787 0.415373 0.730706
-0.511624 0.472151 0.717854
-0.486333 0.523228 0.699795
-0.465915 0.569291 0.677371
-0.449709 0.610878 0.651605