# vtk DataFile Version 2.0
tmp/0.000.00-10.000.000.001.001.vtk
ASCII
DATASET UNSTRUCTURED_GRID
POINTS 5000 float
0.25 0.25 0
1.25 0.25 0
2.25 0.25 0
3.25 0.25 0
4.25 0.25 0
5.25 0.25 0
6.25 0.25 0
7.25 0.25 0
8.25 0.25 0
9.25 0.25 0
10.25 0.25 0
11.25 0.25 0
12.25 0.25 0
13.25 0.25 0
14.25 0.25 0
15.25 0.25 0
16.25 0.25 0
17.25 0.25 0
18.25 0.25 0
19.25 0.25 0
20.25 0.25 0
21.25 0.25 0
22.25 0.25 0
23.25 0.25 0
24.25 0.25 0
25.25 0.25 0
26.25 0.25 0
27.25 0.25 0
28.25 0.25 0
29.25 0.25 0
30.25 0.25 0
31.25 0.25 0
32.25 0.25 0
33.25 0.25 0
34.25 0.25 0
35.25 0.25 0
36.25 0.25 0
37.25 0.25 0
38.25 0.25 0
39.25 0.25 0
40.25 0.25 0
41.25 0.25 0
42.25 0.25 0
43.25 0.25 0
44.25 0.25 0
45.25 0.25 0
46.25 0.25 0
47.25 0.25 0
48.25 0.25 0
49.25 0.25 0
0.75 0.75 0
1.75 0.75 0
2.75 0.75 0
3.75 0.75 0
4.75 0.75 0
5.75 0.75 0
6.75 0.75 0
7.75 0.75 0
8.75 0.75 0
9.75 0.75 0
10.75 0.75 0
11.75 0.75 0
12.75 0.75 0
13.75 0.75 0
14.75 0.75 0
15.75 0.75 0
16.75 0.75 0
17.75 0.75 0
18.75 0.75 0
19.75 0.75 0
20.75 0.75 0
21.75 0.75 0
22.75 0.75 0
23.75 0.75 0
24.75 0.75 0
25.75 0.75 0
26.75 0.75 0
27.75 0.75 0
28.75 0.75 0
29.75 0.75 0
30.75 0.75 0
31.75 0.75 0
32.75 0.75 0
33.75 0.75 0
34.75 0.75 0
35.75 0.75 0
36.75 0.75 0
37.75 0.75 0
38.75 0.75 0
39.75 0.75 0
40.75 0.75 0
41.75 0.75 0
42.75 0.75 0
43.75 0.75 0
44.75 0.75 0
45.75 0.75 0
46.75 0.75 0
47.75 0.75 0
48.75 0.75 0
49.75 0.75 0
0.25 1.25 0
1.25 1.25 0
2.25 1.25 0
3.25 1.25 0
4.25 1.25 0
5.25 1.25 0
6.25 1.25 0
7.25 1.25 0
8.25 1.25 0
9.25 1.25 0
10.25 1.25 0
11.25 1.25 0
12.25 1.25 0
13.25 1.25 0
14.25 1.25 0
15.25 1.25 0
16.25 1.25 0
17.25 1.25 0
18.25 1.25 0
19.25 1.25 0
20.25 1.25 0
21.25 1.25 0
22.25 1.25 0
23.25 1.25 0
24.25 1.25 0
25.25 1.25 0
26.25 1.25 0
27.25 1.25 0
28.25 1.25 0
29.25 1.25 0
30.25 1.25 0
31.25 1.25 0
32.25 1.25 0
33.25 1.25 0
34.25 1.25 0
35.25 1.25 0
36.25 1.25 0
37.25 1.25 0
38.25 1.25 0
39.25 1.25 0
40.25 1.25 0
41.25 1.25 0
42.25 1.25 0
43.25 1.25 0
44.25 1.25 0
45.25 1.25 0
46.25 1.25 0
47.25 1.25 0
48.25 1.25 0
49.25 1.25 0
0.75 1.75 0
1.75 1.75 0
2.75 1.75 0
3.75 1.75 0
4.75 1.75 0
5.75 1.75 0
6.75 1.75 0
7.75 1.75 0
8.75 1.75 0
9.75 1.75 0
10.75 1.75 0
11.75 1.75 0
12.75 1.75 0
13.75 1.75 0
14.75 1.75 0
15.75 1.75 0
16.75 1.75 0
17.75 1.75 0
18.75 1.75 0
19.75 1.75 0
20.75 1.75 0
21.75 1.75 0
22.75 1.75 0
23.75 1.75 0
24.75 1.75 0
25.75 1.75 0
26.75 1.75 0
27.75 1.75 0
28.75 1.75 0
29.75 1.75 0
30.75 1.75 0
31.75 1.75 0
32.75 1.75 0
33.75 1.75 0
34.75 1.75 0
35.75 1.75 0
36.75 1.75 0
37.75 1.75 0
38.75 1.75 0
39.75 1.75 0
40.75 1.75 0
41.75 1.75 0
42.75 1.75 0
43.75 1.75 0
44.75 1.75 0
45.75 1.75 0
46.75 1.75 0
47.75 1.75 0
48.75 1.75 0
49.75 1.75 0
0.25 2.25 0
1.25 2.25 0
2.25 2.25 0
3.25 2.25 0
4.25 2.25 0
5.25 2.25 0
6.25 2.25 0
7.25 2.25 0
8.25 2.25 0
9.25 2.25 0
10.25 2.25 0
11.25 2.25 0
12.25 2.25 0
13.25 2.25 0
14.25 2.25 0
15.25 2.25 0
16.25 2.25 0
17.25 2.25 0
18.25 2.25 0
19.25 2.25 0
20.25 2.25 0
21.25 2.25 0
22.25 2.25 0
23.25 2.25 0
24.25 2.25 0
25.25 2.25 0
26.25 2.25 0
27.25 2.25 0
28.25 2.25 0
29.25 2.25 0
30.25 2.25 0
31.25 2.25 0
32.25 2.25 0
33.25 2.25 0
34.25 2.25 0
35.25 2.25 0
36.25 2.25 0
37.25 2.25 0
38.25 2.25 0
39.25 2.25 0
40.25 2.25 0
41.25 2.25 0
42.25 2.25 0
43.25 2.25 0
44.25 2.25 0
45.25 2.25 0
46.25 2.25 0
47.25 2.25 0
48.25 2.25 0
49.25 2.25 0
0.75 2.75 0
1.75 2.75 0
2.75 2.75 0
3.75 2.75 0
4.75 2.75 0
5.75 2.75 0
6.75 2.75 0
7.75 2.75 0
8.75 2.75 0
9.75 2.75 0
10.75 2.75 0
11.75 2.75 0
12.75 2.75 0
13.75 2.75 0
14.75 2.75 0
15.75 2.75 0
16.75 2.75 0
17.75 2.75 0
18.75 2.75 0
19.75 2.75 0
20.75 2.75 0
21.75 2.75 0
22.75 2.75 0
23.75 2.75 0
24.75 2.75 0
25.75 2.75 0
26.75 2.75 0
27.75 2.75 0
28.75 2.75 0
29.75 2.75 0
30.75 2.75 0
31.75 2.75 0
32.75 2.75 0
33.75 2.75 0
34.75 2.75 0
35.75 2.75 0
36.75 2.75 0
37.75 2.75 0
38.75 2.75 0
39.75 2.75 0
40.75 2.75 0
41.75 2.75 0
42.75 2.75 0
43.75 2.75 0
44.75 2.75 0
45.75 2.75 0
46.75 2.75 0
47.75 2.75 0
48.75 2.75 0
49.75 2.75 0
0.25 3.25 0
1.25 3.25 0
2.25 3.25 0
3.25 3.25 0
4.25 3.25 0
5.25 3.25 0
6.25 3.25 0
7.25 3.25 0
8.25 3.25 0
9.25 3.25 0
10.25 3.25 0
11.25 3.25 0
12.25 3.25 0
13.25 3.25 0
14.25 3.25 0
15.25 3.25 0
16.25 3.25 0
17.25 3.25 0
18.25 3.25 0
19.25 3.25 0
20.25 3.25 0
21.25 3.25 0
22.25 3.25 0
23.25 3.25 0
24.25 3.25 0
25.25 3.25 0
26.25 3.25 0
27.25 3.25 0
28.25 3.25 0
29.25 3.25 0
30.25 3.25 0
31.25 3.25 0
32.25 3.25 0
33.25 3.25 0
34.25 3.25 0
35.25 3.25 0
36.25 3.25 0
37.25 3.25 0
38.25 3.25 0
39.25 3.25 0
40.25 3.25 0
41.25 3.25 0
42.25 3.25 0
43.25 3.25 0
44.25 3.25 0
45.25 3.25 0
46.25 3.25 0
47.25 3.25 0
48.25 3.25 0
49.25 3.25 0
0.75 3.75 0
1.75 3.75 0
2.75 3.75 0
3.75 3.75 0
4.75 3.75 0
5.75 3.75 0
6.75 3.75 0
7.75 3.75 0
8.75 3.75 0
9.75 3.75 0
10.75 3.75 0
11.75 3.75 0
12.75 3.75 0
13.75 3.75 0
14.75 3.75 0
15.75 3.75 0
16.75 3.75 0
17.75 3.75 0
18.75 3.75 0
19.75 3.75 0
20.75 3.75 0
21.75 3.75 0
22.75 3.75 0
23.75 3.75 0
24.75 3.75 0
25.75 3.75 0
26.75 3.75 0
27.75 3.75 0
28.75 3.75 0
29.75 3.75 0
30.75 3.75 0
31.75 3.75 0
32.75 3.75 0
33.75 3.75 0
34.75 3.75 0
35.75 3.75 0
36.75 3.75 0
37.75 3.75 0
38.75 3.75 0
39.75 3.75 0
40.75 3.75 0
41.75 3.75 0
42.75 3.75 0
43.75 3.75 0
44.75 3.75 0
45.75 3.75 0
46.75 3.75 0
47.75 3.75 0
48.75 3.75 0
49.75 3.75 0
0.25 4.25 0
1.25 4.25 0
2.25 4.25 0
3.25 4.25 0
4.25 4.25 0
5.25 4.25 0
6.25 4.25 0
7.25 4.25 0
8.25 4.25 0
9.25 4.25 0
10.25 4.25 0
11.25 4.25 0
12.25 4.25 0
13.25 4.25 0
14.25 4.25 0
15.25 4.25 0
16.25 4.25 0
17.25 4.25 0
18.25 4.25 0
19.25 4.25 0
20.25 4.25 0
21.25 4.25 0
22.25 4.25 0
23.25 4.25 0
24.25 4.25 0
25.25 4.25 0
26.25 4.25 0
27.25 4.25 0
28.25 4.25 0
29.25 4.25 0
30.25 4.25 0
31.25 4.25 0
32.25 4.25 0
33.25 4.25 0
34.25 4.25 0
35.25 4.25 0
36.25 4.25 0
37.25 4.25 0
38.25 4.25 0
39.25 4.25 0
40.25 4.25 0
41.25 4.25 0
42.25 4.25 0
43.25 4.25 0
44.25 4.25 0
45.25 4.25 0
46.25 4.25 0
47.25 4.25 0
48.25 4.25 0
49.25 4.25 0
0.75 4.75 0
1.75 4.75 0
2.75 4.75 0
3.75 4.75 0
4.75 4.75 0
5.75 4.75 0
6.75 4.75 0
7.75 4.75 0
8.75 4.75 0
9.75 4.75 0
10.75 4.75 0
11.75 4.75 0
12.75 4.75 0
13.75 4.75 0
14.75 4.75 0
15.75 4.75 0
16.75 4.75 0
17.75 4.75 0
18.75 4.75 0
19.75 4.75 0
20.75 4.75 0
21.75 4.75 0
22.75 4.75 0
23.75 4.75 0
24.75 4.75 0
25.75 4.75 0
26.75 4.75 0
27.75 4.75 0
28.75 4.75 0
29.75 4.75 0
30.75 4.75 0
31.75 4.75 0
32.75 4.75 0
33.75 4.75 0
34.75 4.75 0
35.75 4.75 0
36.75 4.75 0
37.75 4.75 0
38.75 4.75 0
39.75 4.75 0
40.75 4.75 0
41.75 4.75 0
42.75 4.75 0
43.75 4.75 0
44.75 4.75 0
45.75 4.75 0
46.75 4.75 0
47.75 4.75 0
48.75 4.75 0
49.75 4.75 0
0.25 5.25 0
1.25 5.25 0
2.25 5.25 0
3.25 5.25 0
4.25 5.25 0
5.25 5.25 0
6.25 5.25 0
7.25 5.25 0
8.25 5.25 0
9.25 5.25 0
10.25 5.25 0
11.25 5.25 0
12.25 5.25 0
13.25 5.25 0
14.25 5.25 0
15.25 5.25 0
16.25 5.25 0
17.25 5.25 0
18.25 5.25 0
19.25 5.25 0
20.25 5.25 0
21.25 5.25 0
22.25 5.25 0
23.25 5.25 0
24.25 5.25 0
25.25 5.25 0
26.25 5.25 0
27.25 5.25 0
28.25 5.25 0
29.25 5.25 0
30.25 5.25 0
31.25 5.25 0
32.25 5.25 0
33.25 5.25 0
34.25 5.25 0
35.25 5.25 0
36.25 5.25 0
37.25 5.25 0
38.25 5.25 0
39.25 5.25 0
40.25 5.25 0
41.25 5.25 0
42.25 5.25 0
43.25 5.25 0
44.25 5.25 0
45.25 5.25 0
46.25 5.25 0
47.25 5.25 0
48.25 5.25 0
49.25 5.25 0
0.75 5.75 0
1.75 5.75 0
2.75 5.75 0
3.75 5.75 0
4.75 5.75 0
5.75 5.75 0
6.75 5.75 0
7.75 5.75 0
8.75 5.75 0
9.75 5.75 0
10.75 5.75 0
11.75 5.75 0
12.75 5.75 0
13.75 5.75 0
14.75 5.75 0
15.75 5.75 0
16.75 5.75 0
17.75 5.75 0
18.75 5.75 0
19.75 5.75 0
20.75 5.75 0
21.75 5.75 0
22.75 5.75 0
23.75 5.75 0
24.75 5.75 0
25.75 5.75 0
26.75 5.75 0
27.75 5.75 0
28.75 5.75 0
29.75 5.75 0
30.75 5.75 0
31.75 5.75 0
32.75 5.75 0
33.75 5.75 0
34.75 5.75 0
35.75 5.75 0
36.75 5.75 0
37.75 5.75 0
38.75 5.75 0
39.75 5.75 0
40.75 5.75 0
41.75 5.75 0
42.75 5.75 0
43.75 5.75 0
44.75 5.75 0
45.75 5.75 0
46.75 5.75 0
47.75 5.75 0
48.75 5.75 0
49.75 5.75 0
0.25 6.25 0
1.25 6.25 0
2.25 6.25 0
3.25 6.25 0
4.25 6.25 0
5.25 6.25 0
6.25 6.25 0
7.25 6.25 0
8.25 6.25 0
9.25 6.25 0
10.25 6.25 0
11.25 6.25 0
12.25 6.25 0
13.25 6.25 0
14.25 6.25 0
15.25 6.25 0
16.25 6.25 0
17.25 6.25 0
18.25 6.25 0
19.25 6.25 0
20.25 6.25 0
21.25 6.25 0
22.25 6.25 0
23.25 6.25 0
24.25 6.25 0
25.25 6.25 0
26.25 6.25 0
27.25 6.25 0
28.25 6.25 0
29.25 6.25 0
30.25 6.25 0
31.25 6.25 0
32.25 6.25 0
33.25 6.25 0
34.25 6.25 0
35.25 6.25 0
36.25 6.25 0
37.25 6.25 0
38.25 6.25 0
39.25 6.25 0
40.25 6.25 0
41.25 6.25 0
42.25 6.25 0
43.25 6.25 0
44.25 6.25 0
45.25 6.25 0
46.25 6.25 0
47.25 6.25 0
48.25 6.25 0
49.25 6.25 0
0.75 6.75 0
1.75 6.75 0
2.75 6.75 0
3.75 6.75 0
4.75 6.75 0
5.75 6.75 0
6.75 6.75 0
7.75 6.75 0
8.75 6.75 0
9.75 6.75 0
10.75 6.75 0
11.75 6.75 0
12.75 6.75 0
13.75 6.75 0
14.75 6.75 0
15.75 6.75 0
16.75 6.75 0
17.75 6.75 0
18.75 6.75 0
19.75 6.75 0
20.75 6.75 0
21.75 6.75 0
22.75 6.75 0
23.75 6.75 0
24.75 6.75 0
25.75 6.75 0
26.75 6.75 0
27.75 6.75 0
28.75 6.75 0
29.75 6.75 0
30.75 6.75 0
31.75 6.75 0
32.75 6.75 0
33.75 6.75 0
34.75 6.75 0
35.75 6.75 0
36.75 6.75 0
37.75 6.75 0
38.75 6.75 0
39.75 6.75 0
40.75 6.75 0
41.75 6.75 0
42.75 6.75 0
43.75 6.75 0
44.75 6.75 0
45.75 6.75 0
46.75 6.75 0
47.75 6.75 0
48.75 6.75 0
49.75 6.75 0
0.25 7.25 0
1.25 7.25 0
2.25 7.25 0
3.25 7.25 0
4.25 7.25 0
5.25 7.25 0
6.25 7.25 0
7.25 7.25 0
8.25 7.25 0
9.25 7.25 0
10.25 7.25 0
11.25 7.25 0
12.25 7.25 0
13.25 7.25 0
14.25 7.25 0
15.25 7.25 0
16.25 7.25 0
17.25 7.25 0
18.25 7.25 0
19.25 7.25 0
20.25 7.25 0
21.25 7.25 0
22.25 7.25 0
23.25 7.25 0
24.25 7.25 0
25.25 7.25 0
26.25 7.25 0
27.25 7.25 0
28.25 7.25 0
29.25 7.25 0
30.25 7.25 0
31.25 7.25 0
32.25 7.25 0
33.25 7.25 0
34.25 7.25 0
35.25 7.25 0
36.25 7.25 0
37.25 7.25 0
38.25 7.25 0
39.25 7.25 0
40.25 7.25 0
41.25 7.25 0
42.25 7.25 0
43.25 7.25 0
44.25 7.25 0
45.25 7.25 0
46.25 7.25 0
47.25 7.25 0
48.25 7.25 0
49.25 7.25 0
0.75 7.75 0
1.75 7.75 0
2.75 7.75 0
3.75 7.75 0
4.75 7.75 0
5.75 7.75 0
6.75 7.75 0
7.75 7.75 0
8.75 7.75 0
9.75 7.75 0
10.75 7.75 0
11.75 7.75 0
12.75 7.75 0
13.75 7.75 0
14.75 7.75 0
15.75 7.75 0
16.75 7.75 0
17.75 7.75 0
18.75 7.75 0
19.75 7.75 0
20.75 7.75 0
21.75 7.75 0
[...]
POINT_DATA 5000
VECTORS velocity float
0.232478 0.232478 0.944409
0.424167 0.141635 0.89444
0.6039 -0.0143766 0.79693
0.724505 -0.209681 0.656603
0.766333 -0.413337 0.49182
0.731244 -0.59966 0.325098
0.63418 -0.753076 0.17519
0.494519 -0.8675 0.0538079
0.330453 -0.94321 -0.0340052
0.156653 -0.983725 -0.0880082
-0.0159943 -0.993709 -0.110849
-0.17979 -0.977904 -0.10667
-0.329491 -0.940741 -0.0802575
-0.461728 -0.886268 -0.0365443
-0.574611 -0.81819 0.0196715
-0.667463 -0.7399 0.0839077
-0.740613 -0.654486 0.152121
-0.795212 -0.564704 0.220788
-0.833047 -0.472957 0.286959
-0.856351 -0.381274 0.348272
-0.867623 -0.291308 0.402951
-0.869456 -0.204349 0.449764
-0.86438 -0.121361 0.487973
-0.854746 -0.043019 0.51726
-0.842624 0.0302364 0.537652
-0.829746 0.0981473 0.549444
-0.817472 0.160589 0.553129
-0.806789 0.21753 0.549338
-0.798334 0.269 0.538797
-0.792429 0.315076 0.522286
-0.789134 0.355874 0.50062
-0.7883 0.391552 0.474626
-0.789621 0.422319 0.445135
-0.792692 0.448443 0.412963
-0.797052 0.47026 0.378899
-0.802226 0.488174 0.343684
-0.807757 0.502663 0.307991
-0.813212 0.51428 0.272402
-0.818188 0.523657 0.237384
-0.822293 0.531518 0.203281
-0.825112 0.538687 0.170312
-0.826188 0.546077 0.13861
-0.825007 0.554652 0.108281
-0.821016 0.565342 0.0795139
-0.813667 0.578937 0.0527164
-0.802482 0.595987 0.0286732
-0.787117 0.616743 0.00866763
-0.767413 0.641129 -0.00558152
-0.743546 0.668568 -0.0125122
-0.717354 0.696592 -0.0127644
0.296102 0.296102 0.908101
0.510612 0.178333 0.841114
0.68468 4.88539e-05 0.728844
0.784911 -0.210165 0.582877
0.801995 -0.420792 0.423956
0.745283 -0.608362 0.272852
0.633286 -0.760326 0.144409
0.485713 -0.872889 0.0463406
0.319379 -0.947431 -0.0193036
0.147118 -0.987639 -0.0540851
-0.0218115 -0.997868 -0.0615142
-0.180932 -0.98242 -0.0459763
-0.325837 -0.945348 -0.0121135
-0.453692 -0.89045 0.0355189
-0.562919 -0.821303 0.0926488
-0.652973 -0.741267 0.155401
-0.724177 -0.65346 0.220359
-0.777567 -0.560711 0.284593
-0.814741 -0.465526 0.345663
-0.837716 -0.370061 0.401605
-0.848788 -0.276115 0.45091
-0.850392 -0.185145 0.492499
-0.84498 -0.0982882 0.525688
-0.8349 -0.0163926 0.550158
-0.822285 0.0599475 0.56591
-0.808968 0.130351 0.573218
-0.79642 0.194613 0.572575
-0.785713 0.252663 0.564639
-0.77753 0.304537 0.550185
-0.772197 0.350354 0.530061
-0.769732 0.390303 0.50515
-0.76992 0.424637 0.476347
-0.772377 0.453678 0.444533
-0.776619 0.477814 0.410556
-0.78212 0.497502 0.375206
-0.788358 0.513261 0.339196
-0.794841 0.525676 0.303138
-0.801117 0.535392 0.26752
-0.806763 0.543126 0.232696
-0.811358 0.549679 0.198877
-0.814446 0.555941 0.166153
-0.815512 0.562885 0.134542
-0.81397 0.571507 0.104079
-0.809193 0.582742 0.0749514
-0.800564 0.597348 0.0476679
-0.787542 0.615822 0.0232497
-0.769737 0.638353 0.00339333
-0.747018 0.664735 -0.00955506
-0.720349 0.693479 -0.013571
-0.696592 0.717354 -0.0127644
0.141635 0.424167 0.89444
0.363674 0.363674 0.857603
0.586439 0.224722 0.778196
0.751712 0.027636 0.658912
0.834433 -0.195395 0.515308
0.83292 -0.413088 0.368242
0.761381 -0.603917 0.235761
0.640043 -0.757417 0.129091
0.488201 -0.871131 0.0528312
0.321342 -0.946938 0.0069096
0.150878 -0.988486 -0.0114298
-0.0151034 -0.999867 -0.00620772
-0.170959 -0.985111 0.0181371
-0.312824 -0.948087 0.0572095
-0.438176 -0.89251 0.106901
-0.545574 -0.821957 0.163512
-0.634478 -0.739834 0.223793
-0.705113 -0.649324 0.284946
-0.758346 -0.553327 0.344588
-0.795571 -0.454427 0.400703
-0.818603 -0.354874 0.451612
-0.829572 -0.256601 0.49595
-0.830825 -0.161237 0.532666
-0.824809 -0.0701241 0.561045
-0.813954 0.0156741 0.580718
-0.80053 0.0953633 0.591656
-0.786528 0.168406 0.594149
-0.773552 0.234497 0.588752
-0.762762 0.293532 0.576223
-0.754867 0.345567 0.557457
-0.750162 0.390788 0.533425
-0.748595 0.429485 0.505121
-0.749863 0.462039 0.473525
-0.753492 0.488909 0.439566
-0.758922 0.510629 0.404099
-0.76557 0.527795 0.367878
-0.772877 0.541059 0.331537
-0.780322 0.551123 0.295571
-0.787425 0.558741 0.260327
-0.793724 0.564736 0.225999
-0.798737 0.570008 0.192642
-0.80193 0.575535 0.160211
-0.802696 0.58235 0.12864
-0.800358 0.591464 0.0979625
-0.794217 0.603763 0.0684742
-0.783611 0.619901 0.040947
-0.767989 0.640241 0.0168703
-0.747021 0.664799 -0.00136449
-0.721067 0.692778 -0.01099
-0.693479 0.720349 -0.013571
0.178333 0.510612 0.841114
0.428807 0.428807 0.795141
0.653017 0.269768 0.707668
0.807498 0.056374 0.587171
0.874552 -0.177425 0.451308
0.858385 -0.401172 0.319745
0.776314 -0.595241 0.207425
0.649105 -0.750801 0.122315
0.495165 -0.866249 0.0665201
0.32868 -0.94366 0.0384054
0.159897 -0.986534 0.0344163
-0.00393969 -0.998728 0.0502636
-0.157712 -0.984108 0.0815934
-0.297832 -0.946486 0.124336
-0.421888 -0.889623 0.174874
-0.528439 -0.817194 0.2301
-0.616881 -0.732709 0.287394
-0.68733 -0.639422 0.344553
-0.740511 -0.540268 0.399692
-0.777663 -0.437838 0.451152
-0.800446 -0.334415 0.497447
-0.810878 -0.232013 0.537258
-0.811264 -0.132421 0.569487
-0.8041 -0.037207 0.593329
-0.791945 0.0523121 0.608348
-0.777255 0.135105 0.614509
-0.762206 0.210456 0.612168
-0.74855 0.277961 0.602005
-0.737526 0.337493 0.584939
-0.729847 0.389161 0.56203
-0.725752 0.433249 0.534396
-0.725102 0.470182 0.503146
-0.727492 0.500492 0.469322
-0.732357 0.524799 0.433865
-0.739067 0.543788 0.397587
-0.746984 0.5582 0.361149
-0.755506 0.568816 0.325052
-0.764073 0.57646 0.289631
-0.772154 0.582 0.255057
-0.779213 0.58637 0.221353
-0.784679 0.590572 0.188424
-0.78791 0.59567 0.156126
-0.78819 0.602734 0.124368
-0.784758 0.612745 0.0932665
-0.776859 0.62648 0.0633493
-0.763823 0.644431 0.0358126
-0.745171 0.666752 0.0127704
-0.720916 0.693016 -0.00299237
-0.692778 0.721067 -0.01099
-0.668568 0.743546 -0.0125122
-0.0143766 0.6039 0.79693
0.224722 0.586439 0.778196
0.487325 0.487325 0.724589
0.708407 0.310819 0.63368
0.851834 0.0841236 0.517013
0.905893 -0.158108 0.392886
0.879012 -0.386671 0.278969
0.790134 -0.583668 0.187138
0.659721 -0.741443 0.122597
0.505068 -0.858831 0.0855316
0.339211 -0.937858 0.0732029
0.171544 -0.981795 0.0815553
0.00881477 -0.994305 0.106203
-0.144067 -0.979186 0.142969
-0.283543 -0.94032 0.188155
-0.407146 -0.881632 0.238657
-0.513359 -0.806984 0.29196
-0.601513 -0.72002 0.346055
-0.671667 -0.624044 0.399291
-0.724481 -0.521952 0.450214
-0.761107 -0.416267 0.497432
-0.783111 -0.309229 0.53955
-0.792442 -0.202908 0.575208
-0.791398 -0.0992654 0.603188
-0.78256 -0.000136505 0.622575
-0.768657 0.092851 0.632887
-0.752354 0.178389 0.634146
-0.736028 0.255567 0.626856
-0.721574 0.323895 0.611901
-0.710288 0.383267 0.590422
-0.702862 0.433882 0.563677
-0.699459 0.476172 0.532933
-0.699836 0.510733 0.499381
-0.703486 0.538275 0.464078
-0.709756 0.559589 0.427909
-0.717944 0.575521 0.391576
-0.727357 0.586952 0.355582
-0.737334 0.594796 0.320243
-0.747248 0.599996 0.285702
-0.756479 0.603544 0.25194
-0.76439 0.606487 0.21882
-0.770286 0.609931 0.186131
-0.773405 0.615001 0.153686
-0.772928 0.622761 0.121452
-0.768029 0.634096 0.089741
-0.757939 0.649611 0.0594485
-0.742053 0.669562 0.0323187
-0.720141 0.693742 0.0109029
-0.693016 0.720916 -0.00299237
-0.664735 0.747018 -0.00955506
4.88537e-05 0.68468 0.728844
0.269768 0.653017 0.707668
0.537471 0.537471 0.649808
0.752916 0.346535 0.559491
0.886034 0.109631 0.450471
0.929897 -0.138717 0.340659
0.895709 -0.370816 0.245357
0.802911 -0.570258 0.173611
0.671124 -0.730149 0.128357
0.516476 -0.849423 0.108319
0.35107 -0.929868 0.109979
0.183771 -0.974471 0.128975
0.0211596 -0.98674 0.160922
-0.131787 -0.970505 0.20187
-0.271349 -0.929842 0.248523
-0.394908 -0.868943 0.298306
-0.500872 -0.791906 0.349303
-0.588564 -0.702507 0.400096
-0.658071 -0.604031 0.449543
-0.710067 -0.49925 0.496543
-0.745671 -0.390526 0.539873
-0.76639 -0.280012 0.578134
-0.774118 -0.169832 0.609835
-0.771162 -0.0621717 0.633595
-0.760212 0.040781 0.648393
-0.74419 0.137013 0.653765
-0.725997 0.224892 0.649886
-0.70822 0.303313 0.637515
-0.692887 0.371742 0.617831
-0.681335 0.43015 0.592244
-0.674217 0.478902 0.562214
-0.671605 0.518631 0.52912
-0.673155 0.550146 0.494168
-0.678259 0.574358 0.458343
-0.68618 0.592237 0.422389
-0.696137 0.604789 0.386813
-0.707356 0.613036 0.351901
-0.719087 0.618022 0.317747
-0.730593 0.620819 0.284284
-0.741131 0.622545 0.251322
-0.749925 0.624363 0.218596
-0.756145 0.627462 0.185839
-0.758912 0.632987 0.152902
-0.75733 0.641929 0.119911
-0.750546 0.655 0.087491
-0.737846 0.672556 0.0570176
-0.718815 0.694523 0.0307093
-0.693742 0.720141 0.0109029
-0.664799 0.747021 -0.00136449
-0.641129 0.767413 -0.00558152
-0.209681 0.724505 0.656603
0.027636 0.751712 0.658912
0.310819 0.708407 0.63368
0.578907 0.578907 0.574225
0.787593 0.376727 0.487622
0.911703 0.132583 0.388868
0.948026 -0.119764 0.294793
0.909333 -0.35424 0.218238
0.814735 -0.555635 0.165759
0.682711 -0.717452 0.138447
0.528288 -0.83844 0.133905
0.362891 -0.919996 0.148044
0.195175 -0.964795 0.17629
0.0318528 -0.976246 0.214309
-0.121812 -0.958326 0.258405
-0.261819 -0.91542 0.305708
-0.385391 -0.852066 0.3542
-0.490918 -0.772614 0.402576
-0.577813 -0.68091 0.449992
-0.646277 -0.580127 0.49576
-0.697053 -0.472801 0.539051
-0.731254 -0.361062 0.578707
-0.750316 -0.246955 0.61322
-0.756068 -0.132713 0.640897
-0.750825 -0.0208536 0.660171
-0.737401 0.085957 0.669964
-0.718941 0.185218 0.669939
-0.69861 0.274934 0.660572
-0.679217 0.353842 0.643009
-0.662919 0.421445 0.618807
-0.651086 0.477896 0.589664
-0.644322 0.523814 0.557197
-0.642616 0.560104 0.522808
-0.645528 0.587821 0.487607
-0.652354 0.608093 0.452392
-0.66226 0.622072 0.417659
-0.674359 0.630919 0.383641
-0.687754 0.6358 0.35036
-0.701553 0.637893 0.317673
-0.714862 0.638406 0.285324
-0.726781 0.638582 0.252988
-0.736376 0.639688 0.220337
-0.742689 0.642959 0.187128
-0.744748 0.649489 0.153345
-0.741622 0.660109 0.119383
-0.7325 0.675276 0.0862886
-0.716818 0.695014 0.0559236
-0.694523 0.718815 0.0307093
-0.666752 0.745171 0.0127704
-0.638353 0.769737 0.00339333
-0.210165 0.784911 0.582877
0.056374 0.807498 0.587171
0.346535 0.752916 0.559491
0.61217 0.61217 0.500496
0.813822 0.401817 0.419805
0.93045 0.153103 0.3329
0.961576 -0.101438 0.255111
0.920564 -0.337321 0.196916
0.82563 -0.540239 0.162719
0.693968 -0.703757 0.152103
0.539642 -0.826206 0.161773
0.373679 -0.908478 0.187167
0.204827 -0.952931 0.223536
0.0401818 -0.962969 0.266603
-0.114553 -0.942836 0.312949
-0.255065 -0.897338 0.360176
-0.378473 -0.8314 0.406858
-0.483256 -0.749582 0.452316
-0.569019 -0.655699 0.496263
-0.636142 -0.552678 0.538396
-0.685457 -0.442716 0.578059
-0.718043 -0.327658 0.614048
-0.735225 -0.209478 0.644641
-0.73873 -0.0906423 0.667878
-0.730873 0.0258109 0.682026
-0.714616 0.136553 0.686059
-0.69338 0.238488 0.679962
-0.670632 0.329271 0.664706
-0.649423 0.407585 0.641969
-0.632045 0.473125 0.613736
-0.619896 0.526374 0.581945
-0.613546 0.568308 0.548259
-0.612913 0.600158 0.513952
-0.617467 0.623255 0.479883
-0.626397 0.63894 0.446522
-0.638734 0.648546 0.414012
-0.653428 0.653385 0.382256
-0.669392 0.654766 0.350991
-0.685533 0.654013 0.319862
-0.700762 0.652469 0.288472
-0.713996 0.651499 0.256435
-0.724155 0.652436 0.223441
-0.730178 0.656491 0.189367
-0.731051 0.664616 0.154433
-0.725875 0.677382 0.119409
-0.71396 0.694908 0.085817
-0.695014 0.716818 0.0559236
-0.669562 0.742053 0.0323187
-0.640241 0.767989 0.0168703
-0.616743 0.787117 0.00866763
-0.413337 0.766333 0.49182
-0.195395 0.834433 0.515308
0.0841236 0.851834 0.517013
0.376727 0.787593 0.487622
0.638229 0.638229 0.430495
0.833067 0.422472 0.357095
0.94373 0.17145 0.282804
0.971606 -0.083822 0.221259
0.929897 -0.32034 0.180759
0.835553 -0.524405 0.163863
0.704453 -0.689365 0.168888
0.549882 -0.812934 0.191749
0.382742 -0.895424 0.227432
0.212154 -0.938911 0.270992
0.0457941 -0.946912 0.318214
-0.110119 -0.924079 0.365994
-0.250999 -0.875714 0.412462
-0.373974 -0.80712 0.456838
-0.477736 -0.722967 0.499086
-0.562162 -0.626889 0.53943
-0.627838 -0.521421 0.577875
-0.675648 -0.408324 0.613817
-0.706568 -0.28916 0.64587
-0.721731 -0.16596 0.671983
-0.722712 -0.0416729 0.689892
-0.711838 0.0798477 0.69779
-0.692294 0.194391 0.694939
-0.667856 0.298222 0.681932
-0.642349 0.388779 0.660484
-0.619085 0.464925 0.632912
-0.600495 0.526779 0.601589
-0.588021 0.575312 0.568549
-0.582219 0.611948 0.535295
-0.58295 0.638277 0.502764
-0.589582 0.655896 0.471375
-0.601151 0.666351 0.441128
-0.616479 0.671138 0.411737
-0.634264 0.671722 0.38275
-0.653155 0.669565 0.353655
-0.671803 0.666138 0.323946
-0.688902 0.66292 0.293173
-0.703198 0.661364 0.260979
-0.713499 0.662805 0.227173
-0.718698 0.668331 0.191853
-0.717807 0.678638 0.155574
-0.710034 0.693944 0.119559
-0.694908 0.71396 0.085817
-0.672556 0.737846 0.0570176
-0.644431 0.763823 0.0358126
-0.615822 0.787542 0.0232497
-0.420792 0.801995 0.423956
-0.177425 0.874552 0.451308
0.109631 0.886034 0.450471
0.401817 0.813822 0.419805
0.658209 0.658209 0.365407
0.846707 0.439402 0.300023
0.952785 0.187902 0.238524
0.978946 -0.0669585 0.192824
0.937677 -0.3035 0.169263
0.844434 -0.508366 0.168807
0.713818 -0.674445 0.188647
0.558536 -0.798682 0.223929
0.389636 -0.880767 0.269135
0.216849 -0.922584 0.319086
0.0485694 -0.927904 0.369642
-0.108469 -0.901911 0.41808
-0.249511 -0.850439 0.463139
-0.371836 -0.779086 0.50474
-0.474456 -0.692472 0.543483
-0.557564 -0.593859 0.580046
-0.621917 -0.485241 0.614622
-0.668354 -0.367886 0.6465
-0.697617 -0.243184 0.673938
-0.710542 -0.113521 0.694438
-0.70853 0.0172339 0.70547
-0.694015 0.144013 0.70541
-0.670552 0.261569 0.694221
-0.642388 0.36569 0.673504
-0.613752 0.453953 0.645937
-0.588213 0.525775 0.614464
-0.56834 0.581952 0.581655
-0.555645 0.624071 0.549358
-0.550696 0.654032 0.51863
-0.553293 0.673757 0.489814
-0.562653 0.685077 0.4627
-0.577561 0.689713 0.436713
-0.596516 0.689319 0.411105
-0.617863 0.685518 0.385111
-0.639914 0.67993 0.358058
-0.661041 0.674182 0.329399
-0.679734 0.669863 0.298739
-0.694614 0.668453 0.265859
-0.704448 0.671186 0.230787
-0.708156 0.678899 0.193935
-0.704856 0.69192 0.156284
-0.693944 0.710034 0.119559
-0.675276 0.7325 0.0862886
-0.649611 0.757939 0.0594485
-0.619901 0.783611 0.040947
-0.595987 0.802482 0.0286732
-0.59966 0.731244 0.325098
-0.413088 0.83292 0.368242
-0.158108 0.905893 0.392886
0.132583 0.911703 0.388868
0.422472 0.833067 0.357095
0.673218 0.673218 0.305869
0.85596 0.453274 0.248748
0.958628 0.202717 0.199845
0.984231 -0.0508545 0.16942
0.944145 -0.286913 0.162082
0.852207 -0.492215 0.17739
0.721815 -0.65899 0.211459
0.565302 -0.783299 0.258604
0.394114 -0.864225 0.312712
0.21879 -0.903583 0.368333
0.04851 -0.905557 0.421442
-0.109548 -0.875951 0.469797
-0.25061 -0.82109 0.51284
-0.372245 -0.746709 0.551235
-0.473859 -0.657146 0.586188
-0.555936 -0.555078 0.618727
-0.619287 -0.441829 0.649053
-0.664526 -0.318231 0.676117
-0.691975 -0.185828 0.697594
-0.702086 -0.0479656 0.710475
-0.696188 0.0899069 0.712207
-0.677074 0.221146 0.701901
-0.648909 0.339631 0.680858
-0.616514 0.441228 0.652095
-0.584487 0.524277 0.619281
-0.556601 0.589156 0.58574
-0.535564 0.637509 0.553853
-0.522994 0.671538 0.524894
-0.519485 0.693544 0.499131
-0.524738 0.705702 0.476062
-0.537706 0.710019 0.454692
-0.556777 0.708373 0.433828
-0.579987 0.702576 0.412313
-0.605227 0.694429 0.389189
-0.63044 0.68573 0.363757
-0.653741 0.678242 0.335574
-0.673479 0.673612 0.304422
-0.688239 0.673241 0.270323
-0.696831 0.678122 0.233618
-0.698293 0.688707 0.195115
-0.69192 0.704856 0.156284
-0.677382 0.725875 0.119409
-0.655 0.750546 0.087491
-0.62648 0.776859 0.0633493
-0.597348 0.800564 0.0476679
-0.608362 0.745283 0.272852
-0.401172 0.858385 0.319745
-0.138717 0.929897 0.340659
0.153103 0.93045 0.3329
0.439402 0.846707 0.300023
0.684264 0.684264 0.252121
0.861853 0.464672 0.203199
0.962063 0.216136 0.166493
0.987937 -0.0354558 0.150742
0.949475 -0.270563 0.159038
0.858829 -0.475864 0.18965
0.728286 -0.642769 0.237586
0.57001 -0.766389 0.296205
0.39607 -0.845262 0.358692
0.217964 -0.881292 0.419304
0.0456469 -0.879221 0.474222
-0.113388 -0.845494 0.521808
-0.254514 -0.78679 0.562303
-0.375702 -0.708724 0.597125
-0.476752 -0.615073 0.628007
-0.558318 -0.507705 0.656137
-0.621031 -0.387244 0.681442
-0.664991 -0.254404 0.702187
-0.689899 -0.111646 0.715245
-0.695891 0.0357092 0.717259
-0.684618 0.179898 0.706354
-0.659701 0.312794 0.683341
-0.626162 0.428263 0.651546
-0.589324 0.523301 0.615511
-0.553973 0.597689 0.579553
-0.52399 0.652991 0.546843
-0.502242 0.691612 0.519063
-0.490504 0.716181 0.496478
-0.489395 0.729231 0.47824
-0.498406 0.733086 0.462791
-0.516047 0.729887 0.448286
-0.540123 0.721671 0.432965
-0.568061 0.710451 0.41541
-0.597251 0.698239 0.394656
-0.62529 0.687014 0.370168
-0.650125 0.678634 0.341751
-0.670079 0.674696 0.309483
-0.683812 0.676373 0.273714
-0.69028 0.684259 0.235168
-0.688707 0.698293 0.195115
-0.678638 0.717807 0.155574
-0.660109 0.741622 0.119383
-0.634096 0.768029 0.089741
-0.603763 0.794217 0.0684742
-0.578937 0.813667 0.0527164
-0.753076 0.63418 0.17519
-0.603917 0.761381 0.235761
-0.386671 0.879012 0.278969
-0.119764 0.948026 0.294793
0.17145 0.94373 0.282804
0.453274 0.85596 0.248748
0.692215 0.692215 0.204146
0.865217 0.4741 0.163184
0.963707 0.228406 0.138201
0.990413 -0.0206182 0.136591
0.953788 -0.254271 0.160107
0.864275 -0.459002 0.205783
0.733147 -0.625285 0.267422
0.572588 -0.747262 0.337257
0.395492 -0.823044 0.407658
0.214396 -0.854788 0.472622
0.039959 -0.847891 0.528663
-0.120187 -0.809354 0.574892
-0.261716 -0.745957 0.612416
-0.383043 -0.662846 0.643361
-0.484246 -0.56291 0.669804
-0.565871 -0.447063 0.692765
-0.627966 -0.315482 0.711428
-0.669741 -0.169655 0.722955
-0.690236 -0.0144166 0.723441
-0.6898 0.141622 0.710014
-0.671255 0.288263 0.682877
-0.639607 0.417184 0.645647
-0.600652 0.523991 0.603863
-0.559801 0.60795 0.563045
-0.521712 0.670564 0.527409
-0.49032 0.714319 0.499335
-0.468747 0.741978 0.479316
-0.458999 0.756272 0.466233
-0.46165 0.759768 0.457856
-0.475784 0.754865 0.45145
-0.499224 0.743856 0.444357
-0.528983 0.729009 0.434423
-0.561795 0.712608 0.420211
-0.59457 0.696915 0.400994
-0.624683 0.684068 0.376593
-0.650067 0.675918 0.3472
-0.669167 0.673852 0.31327
-0.680839 0.678628 0.275541
-0.684259 0.69028 0.235168
-0.678899 0.708156 0.193935
-0.664616 0.731051 0.154433
-0.641929 0.75733 0.119911
-0.612745 0.784758 0.0932665
-0.582742 0.809193 0.0749514
-0.760326 0.633286 0.144409
-0.595241 0.776314 0.207425
-0.370816 0.895709 0.245357
-0.101438 0.961576 0.255111
0.187902 0.952785 0.238524
0.464672 0.861853 0.203199
0.697792 0.697792 0.16178
0.866704 0.481996 0.128467
0.964015 0.239803 0.114756
0.9919 -0.00607835 0.126876
0.957163 -0.237662 0.165395
0.868532 -0.441054 0.226105
0.736361 -0.605726 0.301444
0.573029 -0.72489 0.382325
0.39241 -0.796372 0.460225
0.208094 -0.82274 0.528957
0.0313043 -0.810039 0.58554
-0.130374 -0.765604 0.629962
-0.273012 -0.69592 0.664199
-0.395381 -0.605235 0.690915
-0.49753 -0.495265 0.712163
-0.57937 -0.366112 0.728212
-0.639761 -0.218478 0.736867
-0.67677 -0.0565757 0.734017
-0.689394 0.110258 0.715946
-0.679592 0.269577 0.682263
-0.652462 0.410616 0.636936
-0.614363 0.5277 0.586592
-0.571073 0.62001 0.538017
-0.527398 0.689388 0.496584
-0.487659 0.738484 0.46565
-0.455986 0.769959 0.446362
-0.435952 0.786362 0.4377
-0.429819 0.790188 0.436874
-0.437939 0.783923 0.440084
-0.458682 0.770069 0.443402
-0.488887 0.751185 0.44352
-0.52462 0.72991 0.438183
-0.561933 0.708899 0.426256
-0.59741 0.69068 0.407507
-0.628415 0.677459 0.382287
-0.653069 0.670908 0.351259
-0.670093 0.671985 0.315295
-0.678628 0.680839 0.275541
-0.678122 0.696831 0.233618
-0.668331 0.718698 0.191853
-0.649489 0.744748 0.153345
-0.622761 0.772928 0.121452
-0.591464 0.800358 0.0979625
-0.565342 0.821016 0.0795139
-0.8675 0.494519 0.0538079
-0.757417 0.640043 0.129091
-0.583668 0.790134 0.187138
-0.35424 0.909333 0.218238
-0.083822 0.971606 0.221259
0.202717 0.958628 0.199845
0.4741 0.865217 0.163184
0.701578 0.701578 0.124802
0.866809 0.488749 0.0988272
0.963304 0.250653 0.0960124
0.992542 0.00857197 0.121604
0.959627 -0.220127 0.1751