# vtk DataFile Version 2.0
tmp/0.000.00-10.000.000.001.0037.vtk
ASCII
DATASET UNSTRUCTURED_GRID
POINTS 5000 float
0.25 0.25 0
1.25 0.25 0
2.25 0.25 0
3.25 0.25 0
4.25 0.25 0
5.25 0.25 0
6.25 0.25 0
7.25 0.25 0
8.25 0.25 0
9.25 0.25 0
10.25 0.25 0
11.25 0.25 0
12.25 0.25 0
13.25 0.25 0
14.25 0.25 0
15.25 0.25 0
16.25 0.25 0
17.25 0.25 0
18.25 0.25 0
19.25 0.25 0
20.25 0.25 0
21.25 0.25 0
22.25 0.25 0
23.25 0.25 0
24.25 0.25 0
25.25 0.25 0
26.25 0.25 0
27.25 0.25 0
28.25 0.25 0
29.25 0.25 0
30.25 0.25 0
31.25 0.25 0
32.25 0.25 0
33.25 0.25 0
34.25 0.25 0
35.25 0.25 0
36.25 0.25 0
37.25 0.25 0
38.25 0.25 0
39.25 0.25 0
40.25 0.25 0
41.25 0.25 0
42.25 0.25 0
43.25 0.25 0
44.25 0.25 0
45.25 0.25 0
46.25 0.25 0
47.25 0.25 0
48.25 0.25 0
49.25 0.25 0
0.75 0.75 0
1.75 0.75 0
2.75 0.75 0
3.75 0.75 0
4.75 0.75 0
5.75 0.75 0
6.75 0.75 0
7.75 0.75 0
8.75 0.75 0
9.75 0.75 0
10.75 0.75 0
11.75 0.75 0
12.75 0.75 0
13.75 0.75 0
14.75 0.75 0
15.75 0.75 0
16.75 0.75 0
17.75 0.75 0
18.75 0.75 0
19.75 0.75 0
20.75 0.75 0
21.75 0.75 0
22.75 0.75 0
23.75 0.75 0
24.75 0.75 0
25.75 0.75 0
26.75 0.75 0
27.75 0.75 0
28.75 0.75 0
29.75 0.75 0
30.75 0.75 0
31.75 0.75 0
32.75 0.75 0
33.75 0.75 0
34.75 0.75 0
35.75 0.75 0
36.75 0.75 0
37.75 0.75 0
38.75 0.75 0
39.75 0.75 0
40.75 0.75 0
41.75 0.75 0
42.75 0.75 0
43.75 0.75 0
44.75 0.75 0
45.75 0.75 0
46.75 0.75 0
47.75 0.75 0
48.75 0.75 0
49.75 0.75 0
0.25 1.25 0
1.25 1.25 0
2.25 1.25 0
3.25 1.25 0
4.25 1.25 0
5.25 1.25 0
6.25 1.25 0
7.25 1.25 0
8.25 1.25 0
9.25 1.25 0
10.25 1.25 0
11.25 1.25 0
12.25 1.25 0
13.25 1.25 0
14.25 1.25 0
15.25 1.25 0
16.25 1.25 0
17.25 1.25 0
18.25 1.25 0
19.25 1.25 0
20.25 1.25 0
21.25 1.25 0
22.25 1.25 0
23.25 1.25 0
24.25 1.25 0
25.25 1.25 0
26.25 1.25 0
27.25 1.25 0
28.25 1.25 0
29.25 1.25 0
30.25 1.25 0
31.25 1.25 0
32.25 1.25 0
33.25 1.25 0
34.25 1.25 0
35.25 1.25 0
36.25 1.25 0
37.25 1.25 0
38.25 1.25 0
39.25 1.25 0
40.25 1.25 0
41.25 1.25 0
42.25 1.25 0
43.25 1.25 0
44.25 1.25 0
45.25 1.25 0
46.25 1.25 0
47.25 1.25 0
48.25 1.25 0
49.25 1.25 0
0.75 1.75 0
1.75 1.75 0
2.75 1.75 0
3.75 1.75 0
4.75 1.75 0
5.75 1.75 0
6.75 1.75 0
7.75 1.75 0
8.75 1.75 0
9.75 1.75 0
10.75 1.75 0
11.75 1.75 0
12.75 1.75 0
13.75 1.75 0
14.75 1.75 0
15.75 1.75 0
16.75 1.75 0
17.75 1.75 0
18.75 1.75 0
19.75 1.75 0
20.75 1.75 0
21.75 1.75 0
22.75 1.75 0
23.75 1.75 0
24.75 1.75 0
25.75 1.75 0
26.75 1.75 0
27.75 1.75 0
28.75 1.75 0
29.75 1.75 0
30.75 1.75 0
31.75 1.75 0
32.75 1.75 0
33.75 1.75 0
34.75 1.75 0
35.75 1.75 0
36.75 1.75 0
37.75 1.75 0
38.75 1.75 0
39.75 1.75 0
40.75 1.75 0
41.75 1.75 0
42.75 1.75 0
43.75 1.75 0
44.75 1.75 0
45.75 1.75 0
46.75 1.75 0
47.75 1.75 0
48.75 1.75 0
49.75 1.75 0
0.25 2.25 0
1.25 2.25 0
2.25 2.25 0
3.25 2.25 0
4.25 2.25 0
5.25 2.25 0
6.25 2.25 0
7.25 2.25 0
8.25 2.25 0
9.25 2.25 0
10.25 2.25 0
11.25 2.25 0
12.25 2.25 0
13.25 2.25 0
14.25 2.25 0
15.25 2.25 0
16.25 2.25 0
17.25 2.25 0
18.25 2.25 0
19.25 2.25 0
20.25 2.25 0
21.25 2.25 0
22.25 2.25 0
23.25 2.25 0
24.25 2.25 0
25.25 2.25 0
26.25 2.25 0
27.25 2.25 0
28.25 2.25 0
29.25 2.25 0
30.25 2.25 0
31.25 2.25 0
32.25 2.25 0
33.25 2.25 0
34.25 2.25 0
35.25 2.25 0
36.25 2.25 0
37.25 2.25 0
38.25 2.25 0
39.25 2.25 0
40.25 2.25 0
41.25 2.25 0
42.25 2.25 0
43.25 2.25 0
44.25 2.25 0
45.25 2.25 0
46.25 2.25 0
47.25 2.25 0
48.25 2.25 0
49.25 2.25 0
0.75 2.75 0
1.75 2.75 0
2.75 2.75 0
3.75 2.75 0
4.75 2.75 0
5.75 2.75 0
6.75 2.75 0
7.75 2.75 0
8.75 2.75 0
9.75 2.75 0
10.75 2.75 0
11.75 2.75 0
12.75 2.75 0
13.75 2.75 0
14.75 2.75 0
15.75 2.75 0
16.75 2.75 0
17.75 2.75 0
18.75 2.75 0
19.75 2.75 0
20.75 2.75 0
21.75 2.75 0
22.75 2.75 0
23.75 2.75 0
24.75 2.75 0
25.75 2.75 0
26.75 2.75 0
27.75 2.75 0
28.75 2.75 0
29.75 2.75 0
30.75 2.75 0
31.75 2.75 0
32.75 2.75 0
33.75 2.75 0
34.75 2.75 0
35.75 2.75 0
36.75 2.75 0
37.75 2.75 0
38.75 2.75 0
39.75 2.75 0
40.75 2.75 0
41.75 2.75 0
42.75 2.75 0
43.75 2.75 0
44.75 2.75 0
45.75 2.75 0
46.75 2.75 0
47.75 2.75 0
48.75 2.75 0
49.75 2.75 0
0.25 3.25 0
1.25 3.25 0
2.25 3.25 0
3.25 3.25 0
4.25 3.25 0
5.25 3.25 0
6.25 3.25 0
7.25 3.25 0
8.25 3.25 0
9.25 3.25 0
10.25 3.25 0
11.25 3.25 0
12.25 3.25 0
13.25 3.25 0
14.25 3.25 0
15.25 3.25 0
16.25 3.25 0
17.25 3.25 0
18.25 3.25 0
19.25 3.25 0
20.25 3.25 0
21.25 3.25 0
22.25 3.25 0
23.25 3.25 0
24.25 3.25 0
25.25 3.25 0
26.25 3.25 0
27.25 3.25 0
28.25 3.25 0
29.25 3.25 0
30.25 3.25 0
31.25 3.25 0
32.25 3.25 0
33.25 3.25 0
34.25 3.25 0
35.25 3.25 0
36.25 3.25 0
37.25 3.25 0
38.25 3.25 0
39.25 3.25 0
40.25 3.25 0
41.25 3.25 0
42.25 3.25 0
43.25 3.25 0
44.25 3.25 0
45.25 3.25 0
46.25 3.25 0
47.25 3.25 0
48.25 3.25 0
49.25 3.25 0
0.75 3.75 0
1.75 3.75 0
2.75 3.75 0
3.75 3.75 0
4.75 3.75 0
5.75 3.75 0
6.75 3.75 0
7.75 3.75 0
8.75 3.75 0
9.75 3.75 0
10.75 3.75 0
11.75 3.75 0
12.75 3.75 0
13.75 3.75 0
14.75 3.75 0
15.75 3.75 0
16.75 3.75 0
17.75 3.75 0
18.75 3.75 0
19.75 3.75 0
20.75 3.75 0
21.75 3.75 0
22.75 3.75 0
23.75 3.75 0
24.75 3.75 0
25.75 3.75 0
26.75 3.75 0
27.75 3.75 0
28.75 3.75 0
29.75 3.75 0
30.75 3.75 0
31.75 3.75 0
32.75 3.75 0
33.75 3.75 0
34.75 3.75 0
35.75 3.75 0
36.75 3.75 0
37.75 3.75 0
38.75 3.75 0
39.75 3.75 0
40.75 3.75 0
41.75 3.75 0
42.75 3.75 0
43.75 3.75 0
44.75 3.75 0
45.75 3.75 0
46.75 3.75 0
47.75 3.75 0
48.75 3.75 0
49.75 3.75 0
0.25 4.25 0
1.25 4.25 0
2.25 4.25 0
3.25 4.25 0
4.25 4.25 0
5.25 4.25 0
6.25 4.25 0
7.25 4.25 0
8.25 4.25 0
9.25 4.25 0
10.25 4.25 0
11.25 4.25 0
12.25 4.25 0
13.25 4.25 0
14.25 4.25 0
15.25 4.25 0
16.25 4.25 0
17.25 4.25 0
18.25 4.25 0
19.25 4.25 0
20.25 4.25 0
21.25 4.25 0
22.25 4.25 0
23.25 4.25 0
24.25 4.25 0
25.25 4.25 0
26.25 4.25 0
27.25 4.25 0
28.25 4.25 0
29.25 4.25 0
30.25 4.25 0
31.25 4.25 0
32.25 4.25 0
33.25 4.25 0
34.25 4.25 0
35.25 4.25 0
36.25 4.25 0
37.25 4.25 0
38.25 4.25 0
39.25 4.25 0
40.25 4.25 0
41.25 4.25 0
42.25 4.25 0
43.25 4.25 0
44.25 4.25 0
45.25 4.25 0
46.25 4.25 0
47.25 4.25 0
48.25 4.25 0
49.25 4.25 0
0.75 4.75 0
1.75 4.75 0
2.75 4.75 0
3.75 4.75 0
4.75 4.75 0
5.75 4.75 0
6.75 4.75 0
7.75 4.75 0
8.75 4.75 0
9.75 4.75 0
10.75 4.75 0
11.75 4.75 0
12.75 4.75 0
13.75 4.75 0
14.75 4.75 0
15.75 4.75 0
16.75 4.75 0
17.75 4.75 0
18.75 4.75 0
19.75 4.75 0
20.75 4.75 0
21.75 4.75 0
22.75 4.75 0
23.75 4.75 0
24.75 4.75 0
25.75 4.75 0
26.75 4.75 0
27.75 4.75 0
28.75 4.75 0
29.75 4.75 0
30.75 4.75 0
31.75 4.75 0
32.75 4.75 0
33.75 4.75 0
34.75 4.75 0
35.75 4.75 0
36.75 4.75 0
37.75 4.75 0
38.75 4.75 0
39.75 4.75 0
40.75 4.75 0
41.75 4.75 0
42.75 4.75 0
43.75 4.75 0
44.75 4.75 0
45.75 4.75 0
46.75 4.75 0
47.75 4.75 0
48.75 4.75 0
49.75 4.75 0
0.25 5.25 0
1.25 5.25 0
2.25 5.25 0
3.25 5.25 0
4.25 5.25 0
5.25 5.25 0
6.25 5.25 0
7.25 5.25 0
8.25 5.25 0
9.25 5.25 0
10.25 5.25 0
11.25 5.25 0
12.25 5.25 0
13.25 5.25 0
14.25 5.25 0
15.25 5.25 0
16.25 5.25 0
17.25 5.25 0
18.25 5.25 0
19.25 5.25 0
20.25 5.25 0
21.25 5.25 0
22.25 5.25 0
23.25 5.25 0
24.25 5.25 0
25.25 5.25 0
26.25 5.25 0
27.25 5.25 0
28.25 5.25 0
29.25 5.25 0
30.25 5.25 0
31.25 5.25 0
32.25 5.25 0
33.25 5.25 0
34.25 5.25 0
35.25 5.25 0
36.25 5.25 0
37.25 5.25 0
38.25 5.25 0
39.25 5.25 0
40.25 5.25 0
41.25 5.25 0
42.25 5.25 0
43.25 5.25 0
44.25 5.25 0
45.25 5.25 0
46.25 5.25 0
47.25 5.25 0
48.25 5.25 0
49.25 5.25 0
0.75 5.75 0
1.75 5.75 0
2.75 5.75 0
3.75 5.75 0
4.75 5.75 0
5.75 5.75 0
6.75 5.75 0
7.75 5.75 0
8.75 5.75 0
9.75 5.75 0
10.75 5.75 0
11.75 5.75 0
12.75 5.75 0
13.75 5.75 0
14.75 5.75 0
15.75 5.75 0
16.75 5.75 0
17.75 5.75 0
18.75 5.75 0
19.75 5.75 0
20.75 5.75 0
21.75 5.75 0
22.75 5.75 0
23.75 5.75 0
24.75 5.75 0
25.75 5.75 0
26.75 5.75 0
27.75 5.75 0
28.75 5.75 0
29.75 5.75 0
30.75 5.75 0
31.75 5.75 0
32.75 5.75 0
33.75 5.75 0
34.75 5.75 0
35.75 5.75 0
36.75 5.75 0
37.75 5.75 0
38.75 5.75 0
39.75 5.75 0
40.75 5.75 0
41.75 5.75 0
42.75 5.75 0
43.75 5.75 0
44.75 5.75 0
45.75 5.75 0
46.75 5.75 0
47.75 5.75 0
48.75 5.75 0
49.75 5.75 0
0.25 6.25 0
1.25 6.25 0
2.25 6.25 0
3.25 6.25 0
4.25 6.25 0
5.25 6.25 0
6.25 6.25 0
7.25 6.25 0
8.25 6.25 0
9.25 6.25 0
10.25 6.25 0
11.25 6.25 0
12.25 6.25 0
13.25 6.25 0
14.25 6.25 0
15.25 6.25 0
16.25 6.25 0
17.25 6.25 0
18.25 6.25 0
19.25 6.25 0
20.25 6.25 0
21.25 6.25 0
22.25 6.25 0
23.25 6.25 0
24.25 6.25 0
25.25 6.25 0
26.25 6.25 0
27.25 6.25 0
28.25 6.25 0
29.25 6.25 0
30.25 6.25 0
31.25 6.25 0
32.25 6.25 0
33.25 6.25 0
34.25 6.25 0
35.25 6.25 0
36.25 6.25 0
37.25 6.25 0
38.25 6.25 0
39.25 6.25 0
40.25 6.25 0
41.25 6.25 0
42.25 6.25 0
43.25 6.25 0
44.25 6.25 0
45.25 6.25 0
46.25 6.25 0
47.25 6.25 0
48.25 6.25 0
49.25 6.25 0
0.75 6.75 0
1.75 6.75 0
2.75 6.75 0
3.75 6.75 0
4.75 6.75 0
5.75 6.75 0
6.75 6.75 0
7.75 6.75 0
8.75 6.75 0
9.75 6.75 0
10.75 6.75 0
11.75 6.75 0
12.75 6.75 0
13.75 6.75 0
14.75 6.75 0
15.75 6.75 0
16.75 6.75 0
17.75 6.75 0
18.75 6.75 0
19.75 6.75 0
20.75 6.75 0
21.75 6.75 0
22.75 6.75 0
23.75 6.75 0
24.75 6.75 0
25.75 6.75 0
26.75 6.75 0
27.75 6.75 0
28.75 6.75 0
29.75 6.75 0
30.75 6.75 0
31.75 6.75 0
32.75 6.75 0
33.75 6.75 0
34.75 6.75 0
35.75 6.75 0
36.75 6.75 0
37.75 6.75 0
38.75 6.75 0
39.75 6.75 0
40.75 6.75 0
41.75 6.75 0
42.75 6.75 0
43.75 6.75 0
44.75 6.75 0
45.75 6.75 0
46.75 6.75 0
47.75 6.75 0
48.75 6.75 0
49.75 6.75 0
0.25 7.25 0
1.25 7.25 0
2.25 7.25 0
3.25 7.25 0
4.25 7.25 0
5.25 7.25 0
6.25 7.25 0
7.25 7.25 0
8.25 7.25 0
9.25 7.25 0
10.25 7.25 0
11.25 7.25 0
12.25 7.25 0
13.25 7.25 0
14.25 7.25 0
15.25 7.25 0
16.25 7.25 0
17.25 7.25 0
18.25 7.25 0
19.25 7.25 0
20.25 7.25 0
21.25 7.25 0
22.25 7.25 0
23.25 7.25 0
24.25 7.25 0
25.25 7.25 0
26.25 7.25 0
27.25 7.25 0
28.25 7.25 0
29.25 7.25 0
30.25 7.25 0
31.25 7.25 0
32.25 7.25 0
33.25 7.25 0
34.25 7.25 0
35.25 7.25 0
36.25 7.25 0
37.25 7.25 0
38.25 7.25 0
39.25 7.25 0
40.25 7.25 0
41.25 7.25 0
42.25 7.25 0
43.25 7.25 0
44.25 7.25 0
45.25 7.25 0
46.25 7.25 0
47.25 7.25 0
48.25 7.25 0
49.25 7.25 0
0.75 7.75 0
1.75 7.75 0
2.75 7.75 0
3.75 7.75 0
4.75 7.75 0
5.75 7.75 0
6.75 7.75 0
7.75 7.75 0
8.75 7.75 0
9.75 7.75 0
10.75 7.75 0
11.75 7.75 0
12.75 7.75 0
13.75 7.75 0
14.75 7.75 0
15.75 7.75 0
16.75 7.75 0
17.75 7.75 0
18.75 7.75 0
19.75 7.75 0
20.75 7.75 0
21.75 7.75 0
[...]
POINT_DATA 5000
VECTORS velocity float
-0.517939 -0.517939 0.680793
-0.451174 -0.587976 0.671362
-0.315512 -0.689982 0.651442
-0.145216 -0.792503 0.592327
0.0291659 -0.873595 0.485779
0.188402 -0.923073 0.335321
0.321441 -0.935097 0.149228
0.418853 -0.906026 -0.0606629
0.471152 -0.837073 -0.278074
0.471927 -0.737065 -0.483756
0.421807 -0.62164 -0.660033
0.329339 -0.508547 -0.79556
0.20811 -0.412143 -0.887033
0.0725446 -0.340371 -0.937489
-0.0651533 -0.294838 -0.953323
-0.196248 -0.272591 -0.941903
-0.3155 -0.268116 -0.91026
-0.420635 -0.274864 -0.86459
-0.511644 -0.28624 -0.810116
-0.590014 -0.29622 -0.751091
-0.657906 -0.299815 -0.690848
-0.717366 -0.293458 -0.631877
-0.769713 -0.275317 -0.575971
-0.815283 -0.245474 -0.524458
-0.853623 -0.205897 -0.478472
-0.884045 -0.160044 -0.439148
-0.906234 -0.112074 -0.407652
-0.920542 -0.065873 -0.385049
-0.92786 -0.0242963 -0.372136
-0.929238 0.0111124 -0.369315
-0.925542 0.0399866 -0.376527
-0.917305 0.0627963 -0.393203
-0.904767 0.0805 -0.41823
-0.888056 0.0942758 -0.449966
-0.867401 0.105326 -0.486335
-0.843314 0.114721 -0.525034
-0.816674 0.123291 -0.563776
-0.788691 0.131564 -0.600547
-0.760755 0.139799 -0.633805
-0.734211 0.14808 -0.662576
-0.710138 0.156454 -0.686459
-0.68916 0.165049 -0.705561
-0.671299 0.174141 -0.720439
-0.655872 0.184258 -0.732039
-0.641419 0.196364 -0.741636
-0.625579 0.212136 -0.750765
-0.604784 0.234317 -0.761139
-0.573701 0.267024 -0.774316
-0.525446 0.315281 -0.790256
-0.458298 0.381815 -0.802609
-0.52103 -0.52103 0.676059
-0.384608 -0.613869 0.689378
-0.192813 -0.717036 0.669838
0.00842062 -0.801269 0.598245
0.191366 -0.857488 0.477591
0.345212 -0.883785 0.315838
0.46414 -0.877352 0.121768
0.540937 -0.835967 -0.0924427
0.568237 -0.76234 -0.30975
0.543132 -0.666348 -0.51087
0.470327 -0.563002 -0.679574
0.361254 -0.467522 -0.806795
0.230361 -0.390956 -0.891116
0.0913696 -0.338466 -0.936532
-0.0449012 -0.309964 -0.949687
-0.171211 -0.301741 -0.937891
-0.28374 -0.308072 -0.908066
-0.381596 -0.322368 -0.866293
-0.46621 -0.337862 -0.817617
-0.5406 -0.347996 -0.765931
-0.608396 -0.34675 -0.713876
-0.672566 -0.329133 -0.662816
-0.734084 -0.292044 -0.61305
-0.791126 -0.235578 -0.564467
-0.839727 -0.164176 -0.517595
-0.87609 -0.0861461 -0.474389
-0.898942 -0.010875 -0.437932
-0.909896 0.054575 -0.41123
-0.911917 0.107027 -0.396173
-0.907662 0.146573 -0.393277
-0.898763 0.175123 -0.401942
-0.88592 0.195211 -0.42076
-0.869314 0.209327 -0.447744
-0.849038 0.219624 -0.48052
-0.825412 0.227784 -0.516535
-0.799144 0.234988 -0.553308
-0.77132 0.241932 -0.588672
-0.743268 0.248916 -0.620962
-0.716323 0.25598 -0.649119
-0.691599 0.263056 -0.672676
-0.669803 0.270056 -0.69169
-0.65111 0.276896 -0.706671
-0.635074 0.283559 -0.718523
-0.620573 0.290258 -0.72845
-0.605741 0.29772 -0.737862
-0.587716 0.307572 -0.748324
-0.561952 0.322821 -0.761575
-0.521111 0.348161 -0.779248
-0.45645 0.388836 -0.800288
-0.381815 0.458298 -0.802609
-0.587976 -0.451174 0.671362
-0.498252 -0.498252 0.70957
-0.308559 -0.595333 0.741869
-0.0916247 -0.690092 0.717898
0.112293 -0.764488 0.634783
0.28687 -0.816006 0.501837
0.427986 -0.84248 0.327192
0.530964 -0.838915 0.119576
0.588138 -0.801694 -0.106675
0.593326 -0.733715 -0.3311
0.547168 -0.645826 -0.532462
0.458338 -0.553173 -0.695647
0.340268 -0.469609 -0.814669
0.206879 -0.404138 -0.890996
0.0699281 -0.360316 -0.930206
-0.0619051 -0.337323 -0.939351
-0.183059 -0.331435 -0.925549
-0.290848 -0.337251 -0.89536
-0.385138 -0.34854 -0.85451
-0.46793 -0.358706 -0.807695
-0.542704 -0.36106 -0.758359
-0.613296 -0.349156 -0.70849
-0.682239 -0.317544 -0.658571
-0.748985 -0.263303 -0.608023
-0.809259 -0.188272 -0.556465
-0.85705 -0.100332 -0.505371
-0.888568 -0.0112385 -0.458607
-0.90452 0.0684667 -0.420899
-0.90867 0.13319 -0.395702
-0.90502 0.182284 -0.384331
-0.896236 0.217978 -0.386324
-0.883548 0.243459 -0.400089
-0.867304 0.261817 -0.423362
-0.847569 0.275626 -0.453494
-0.824559 0.286818 -0.487687
-0.798871 0.296683 -0.523243
-0.771518 0.305943 -0.557816
-0.743783 0.314882 -0.589606
-0.716989 0.323523 -0.617462
-0.692252 0.33179 -0.640861
-0.670306 0.339588 -0.659826
-0.651396 0.346782 -0.674852
-0.635206 0.353223 -0.686838
-0.620816 0.358894 -0.696981
-0.606678 0.36417 -0.706628
-0.590448 0.370161 -0.717184
-0.568408 0.379092 -0.730207
-0.534118 0.394491 -0.747726
-0.476977 0.419876 -0.772138
-0.388836 0.45645 -0.800288
-0.613869 -0.384608 0.689378
-0.450692 -0.450692 0.770554
-0.228803 -0.545081 0.806558
-0.00649897 -0.632653 0.774408
0.188612 -0.705966 0.682669
0.351302 -0.763975 0.54123
0.48055 -0.80175 0.355342
0.570199 -0.81068 0.132931
0.610752 -0.78435 -0.108523
0.596986 -0.72508 -0.343317
0.533421 -0.64494 -0.547278
0.432445 -0.559974 -0.706697
0.30849 -0.483559 -0.819149
0.174028 -0.423589 -0.888981
0.0385517 -0.382836 -0.923012
-0.0911459 -0.360301 -0.928373
-0.210677 -0.35247 -0.9118
-0.317969 -0.354254 -0.879432
-0.413187 -0.359616 -0.836632
-0.498469 -0.361946 -0.787733
-0.577195 -0.354355 -0.735716
-0.652548 -0.330234 -0.682002
-0.725475 -0.284559 -0.626668
-0.793068 -0.216181 -0.569481
-0.849257 -0.130185 -0.511678
-0.888607 -0.0374917 -0.457135
-0.910152 0.0497558 -0.411277
-0.917306 0.123489 -0.378549
-0.914795 0.181318 -0.360933
-0.9062 0.224785 -0.358152
-0.893383 0.257035 -0.36851
-0.876988 0.281344 -0.389536
-0.857143 0.30048 -0.418351
-0.834016 0.316504 -0.451932
-0.808132 0.330753 -0.487365
-0.780456 0.343939 -0.522105
-0.752273 0.356305 -0.554195
-0.724938 0.367836 -0.582376
-0.699608 0.378453 -0.606071
-0.677057 0.388087 -0.625286
-0.657581 0.396637 -0.640521
-0.640939 0.403941 -0.652709
-0.626323 0.409914 -0.663091
-0.612359 0.41479 -0.673028
-0.597037 0.419423 -0.683836
-0.577333 0.425602 -0.696814
-0.548118 0.436152 -0.713679
-0.5002 0.45377 -0.737491
-0.419876 0.476977 -0.772138
-0.315281 0.525446 -0.790256
-0.689982 -0.315512 0.651442
-0.595333 -0.308559 0.741869
-0.385099 -0.385099 0.838688
-0.150181 -0.474544 0.867326
0.0640492 -0.558974 0.826708
0.245422 -0.636981 0.730769
0.396418 -0.707143 0.585492
0.516307 -0.761802 0.391261
0.595856 -0.788105 0.154422
0.622821 -0.775479 -0.103566
0.593001 -0.725104 -0.350105
0.515125 -0.650898 -0.557654
0.404714 -0.570678 -0.714517
0.276166 -0.498065 -0.821988
0.140075 -0.440473 -0.886771
0.0040229 -0.400339 -0.916358
-0.126393 -0.376649 -0.917693
-0.247316 -0.366006 -0.897148
-0.356853 -0.363388 -0.860584
-0.455224 -0.362675 -0.813165
-0.544508 -0.357017 -0.75898
-0.627663 -0.339264 -0.70067
-0.706669 -0.302947 -0.639408
-0.780351 -0.244305 -0.575646
-0.84373 -0.165068 -0.510757
-0.890704 -0.0737398 -0.448562
-0.918578 0.0174194 -0.394855
-0.929737 0.0982385 -0.354877
-0.929152 0.164118 -0.331273
-0.921222 0.215332 -0.324009
-0.908519 0.254605 -0.331314
-0.892072 0.285214 -0.350515
-0.872121 0.310055 -0.378512
-0.848794 0.331298 -0.412055
-0.822532 0.350331 -0.448005
-0.794239 0.367856 -0.483597
-0.765201 0.384074 -0.516676
-0.736836 0.398921 -0.545833
-0.710389 0.412297 -0.570403
-0.686719 0.424159 -0.590344
-0.666209 0.434442 -0.606156
-0.648708 0.442997 -0.618815
-0.633496 0.449706 -0.62964
-0.619312 0.454709 -0.640072
-0.60435 0.458687 -0.651434
-0.586067 0.463134 -0.664855
-0.560453 0.470446 -0.681596
-0.520411 0.483085 -0.704131
-0.45377 0.5002 -0.737491
-0.348161 0.521111 -0.779248
-0.717036 -0.192813 0.669838
-0.545081 -0.228803 0.806558
-0.309145 -0.309145 0.899366
-0.0777059 -0.395001 0.915389
0.120701 -0.479722 0.869079
0.287106 -0.564888 0.773609
0.427938 -0.649087 0.628932
0.541212 -0.722874 0.429584
0.613782 -0.768796 0.17951
0.629937 -0.770778 -0.0952894
0.58657 -0.72846 -0.353951
0.496734 -0.658408 -0.565468
0.378359 -0.580947 -0.720656
0.245154 -0.510355 -0.82428
0.105977 -0.453844 -0.884757
-0.0328493 -0.413642 -0.909847
-0.166246 -0.38864 -0.906268
-0.290441 -0.375361 -0.880198
-0.40351 -0.368606 -0.837442
-0.505644 -0.36196 -0.783141
-0.598752 -0.348204 -0.721283
-0.685103 -0.320002 -0.654394
-0.765082 -0.27148 -0.583908
-0.835403 -0.201021 -0.51156
-0.890181 -0.113839 -0.441156
-0.92524 -0.0210648 -0.378798
-0.941491 0.0656046 -0.330592
-0.943722 0.139124 -0.300054
-0.93707 0.198044 -0.287537
-0.924912 0.244381 -0.291231
-0.908763 0.28131 -0.308243
-0.889034 0.31184 -0.335222
-0.865819 0.338274 -0.368684
-0.839445 0.362071 -0.405261
-0.810719 0.383936 -0.441958
-0.780896 0.404033 -0.476401
-0.75144 0.422248 -0.506996
-0.723693 0.438458 -0.532938
-0.698634 0.452644 -0.554098
-0.67677 0.46478 -0.570931
-0.658078 0.474731 -0.584435
-0.641956 0.482346 -0.596016
-0.627245 0.487682 -0.607231
-0.61228 0.491263 -0.619495
-0.594825 0.494336 -0.633889
-0.571671 0.498977 -0.651317
-0.537511 0.507556 -0.673401
-0.483085 0.520411 -0.704131
-0.394491 0.534118 -0.747726
-0.267024 0.573701 -0.774316
-0.792503 -0.145216 0.592327
-0.690092 -0.0916247 0.717898
-0.474544 -0.150181 0.867326
-0.231817 -0.231817 0.944734
-0.015158 -0.316168 0.948582
0.164665 -0.402696 0.900401
0.316984 -0.495018 0.808998
0.449573 -0.592723 0.668254
0.558716 -0.685614 0.466659
0.627009 -0.751566 0.204959
0.634684 -0.76796 -0.0861079
0.579716 -0.732685 -0.356514
0.479401 -0.66564 -0.571925
0.353484 -0.590014 -0.725901
0.214789 -0.520815 -0.826207
0.0708839 -0.465089 -0.882421
-0.0725366 -0.424811 -0.902371
-0.210435 -0.398651 -0.892633
-0.338876 -0.38288 -0.859399
-0.455826 -0.371962 -0.80862
-0.561409 -0.359067 -0.74558
-0.657238 -0.336599 -0.674344
-0.744604 -0.297267 -0.59766
-0.822105 -0.236474 -0.517902
-0.884954 -0.155605 -0.438912
-0.928064 -0.0633608 -0.366992
-0.950585 0.0279737 -0.309201
-0.956618 0.108863 -0.270243
-0.951881 0.175641 -0.251144
-0.940675 0.229244 -0.250155
-0.925155 0.272611 -0.264141
-0.90599 0.308863 -0.289458
-0.883269 0.340472 -0.322359
-0.857195 0.369 -0.359242
-0.828441 0.395173 -0.396892
-0.798184 0.419122 -0.432711
-0.767895 0.440681 -0.464906
-0.738992 0.459706 -0.492505
-0.712563 0.476213 -0.515243
-0.689254 0.490227 -0.533485
-0.669206 0.501633 -0.548205
-0.65197 0.510249 -0.560875
-0.636514 0.516051 -0.573185
-0.621292 0.519416 -0.586689
-0.604273 0.521362 -0.602524
-0.58277 0.523688 -0.621393
-0.552768 0.528657 -0.644181
-0.507556 0.537511 -0.673401
-0.436152 0.548118 -0.713679
-0.322821 0.561952 -0.761575
-0.801269 0.00842062 0.598245
-0.632653 -0.00649897 0.774408
-0.395001 -0.0777059 0.915389
-0.160364 -0.160364 0.973944
0.0363861 -0.244204 0.969041
0.198214 -0.332431 0.922063
0.338314 -0.430615 0.836729
0.464532 -0.540025 0.701843
0.571524 -0.650538 0.500161
0.63759 -0.735668 0.228628
0.638467 -0.76574 -0.0774716
0.57315 -0.736803 -0.358637
0.463029 -0.672384 -0.577498
0.329293 -0.59848 -0.730334
0.183984 -0.530684 -0.82736
0.0338629 -0.475813 -0.878894
-0.115514 -0.435515 -0.892739
-0.258836 -0.408146 -0.875454
-0.391872 -0.389622 -0.833445
-0.512442 -0.373989 -0.773004
-0.620546 -0.353968 -0.699735
-0.717318 -0.321693 -0.618036
-0.802827 -0.270384 -0.531377
-0.874052 -0.197585 -0.443838
-0.925954 -0.108311 -0.361771
-0.955981 -0.0139648 -0.293096
-0.966953 0.0738273 -0.24403
-0.964848 0.148691 -0.216702
-0.954973 0.209951 -0.209637
-0.940319 0.26006 -0.219473
-0.921954 0.302216 -0.242213
-0.900026 0.339099 -0.273797
-0.874626 0.372419 -0.310376
-0.84627 0.402946 -0.348514
-0.81602 0.430781 -0.385407
-0.785313 0.455707 -0.419063
-0.755604 0.477552 -0.448338
-0.728055 0.496377 -0.472807
-0.703433 0.512281 -0.492696
-0.68205 0.525184 -0.508911
-0.66364 0.534881 -0.522957
-0.647327 0.541275 -0.536646
-0.631695 0.544607 -0.551693
-0.614861 0.545687 -0.569361
-0.594463 0.546055 -0.590285
-0.567344 0.547824 -0.614825
-0.528657 0.552768 -0.644181
-0.470446 0.560453 -0.681596
-0.379092 0.568408 -0.730207
-0.234317 0.604784 -0.761139
-0.873595 0.0291659 0.485779
-0.764488 0.112293 0.634783
-0.558974 0.0640492 0.826708
-0.316168 -0.015158 0.948582
-0.0983949 -0.0983949 0.990271
0.0780052 -0.181548 0.980283
0.22406 -0.270614 0.93625
0.354077 -0.373011 0.857608
0.475555 -0.491897 0.729304
0.581802 -0.617824 0.52896
0.646944 -0.720595 0.249412
0.64199 -0.763512 -0.069992
0.566919 -0.740687 -0.360536
0.447064 -0.679125 -0.582171
0.304865 -0.607276 -0.733671
0.151783 -0.541109 -0.827142
-0.00581231 -0.487136 -0.873307
-0.162133 -0.446647 -0.879897
-0.311367 -0.417634 -0.8536
-0.448884 -0.395616 -0.801243
-0.572317 -0.374195 -0.729679
-0.681447 -0.345704 -0.645073
-0.776734 -0.302291 -0.552543
-0.856963 -0.238394 -0.456928
-0.918229 -0.154627 -0.364618
-0.956935 -0.0596509 -0.284109
-0.974165 0.0339941 -0.223264
-0.975586 0.11701 -0.185851
-0.967464 0.186414 -0.171065
-0.953846 0.243739 -0.175409
-0.936396 0.292134 -0.194472
-0.915429 0.334512 -0.223813
-0.890955 0.372782 -0.259291
-0.863336 0.407792 -0.297247
-0.833496 0.439629 -0.334679
-0.802806 0.468013 -0.369413
-0.77272 0.492741 -0.400138
-0.744431 0.513926 -0.426265
-0.718788 0.531765 -0.44785
-0.696254 0.546225 -0.465691
-0.676756 0.557098 -0.481294
-0.659598 0.564225 -0.49657
-0.643508 0.567728 -0.513403
-0.626728 0.568232 -0.53322
-0.6071 0.567037 -0.556686
-0.581993 0.56607 -0.583823
-0.547824 0.567344 -0.614825
-0.498977 0.571671 -0.651317
-0.425602 0.577333 -0.696814
-0.307572 0.587716 -0.748324
-0.857488 0.191366 0.477591
-0.705966 0.188612 0.682669
-0.479722 0.120701 0.869079
-0.244204 0.0363861 0.969041
-0.0463614 -0.0463614 0.997848
0.111741 -0.128128 0.985443
0.244711 -0.217068 0.944986
0.366672 -0.322154 0.872793
0.484732 -0.448359 0.751005
0.591098 -0.587335 0.552848
0.655921 -0.706023 0.26702
0.645469 -0.761125 -0.0637074
0.560738 -0.744627 -0.362083
0.430852 -0.686506 -0.585727
0.279384 -0.617187 -0.735544
0.117411 -0.552821 -0.824987
-0.0487337 -0.499584 -0.864893
-0.212708 -0.458396 -0.862918
-0.367988 -0.426881 -0.826049
-0.509438 -0.400163 -0.761802
-0.634445 -0.371449 -0.677868
-0.742461 -0.332869 -0.581335
-0.83318 -0.2771 -0.478568
-0.904446 -0.200714 -0.37642
-0.952818 -0.108038 -0.283665
-0.977727 -0.0104816 -0.20962
-0.983821 0.0802611 -0.16017
-0.978022 0.158231 -0.13578
-0.96561 0.223362 -0.133069
-0.949099 0.278468 -0.147194
-0.929127 0.326669 -0.173235
-0.905694 0.370128 -0.206698
-0.879019 0.409816 -0.243672
-0.849884 0.445825 -0.280958
-0.819574 0.477816 -0.316212
-0.789521 0.505542 -0.347971
-0.760908 0.529179 -0.375484
-0.734614 0.549037 -0.398624
-0.711222 0.565151 -0.418052
-0.69084 0.57732 -0.435249
-0.672961 0.585346 -0.45221
-0.656476 0.58925 -0.470982
-0.639743 0.589495 -0.493178
-0.620724 0.587164 -0.519558
-0.597094 0.583979 -0.549952
-0.56607 0.581993 -0.583823
-0.523688 0.58277 -0.621393
-0.463134 0.586067 -0.664855
-0.370161 0.590448 -0.717184
-0.212136 0.625579 -0.750765
-0.923073 0.188402 0.335321
-0.816006 0.28687 0.501837
-0.636981 0.245422 0.730769
-0.402696 0.164665 0.900401
-0.181548 0.0780052 0.980283
-0.00299981 -0.00299981 0.999991
0.139718 -0.0826637 0.986735
0.262152 -0.170682 0.949813
0.377801 -0.277218 0.883412
0.493439 -0.40889 0.767676
0.60034 -0.558758 0.572173
0.664904 -0.691792 0.281649
0.648825 -0.758694 -0.0583909
0.554196 -0.749034 -0.363063
0.413766 -0.695061 -0.587952
0.252134 -0.628695 -0.735643
0.0801736 -0.566123 -0.820413
-0.0954784 -0.513172 -0.852959
-0.267587 -0.470405 -0.840902
-0.428673 -0.435107 -0.791784
-0.572981 -0.402072 -0.714164
-0.697606 -0.364263 -0.616975
-0.801642 -0.313983 -0.508708
-0.884202 -0.245196 -0.397575
-0.943121 -0.157514 -0.292766
-0.977071 -0.0588796 -0.204609
-0.989232 0.0383117 -0.141253
-0.986575 0.12494 -0.105168
-0.975626 0.198482 -0.0935891
-0.960037 0.260886 -0.101325
-0.940989 0.315341 -0.122884
-0.918575 0.364298 -0.15332
-0.892914 0.408903 -0.188425
-0.864645 0.449289 -0.224786
-0.834965 0.485069 -0.259888
-0.805272 0.51594 -0.292135
-0.776713 0.542146 -0.320617
-0.750143 0.564139 -0.345011
-0.726228 0.582035 -0.365826
-0.705238 0.595649 -0.384503
-0.686851 0.604763 -0.40311
-0.670129 0.609323 -0.423854
-0.653549 0.60965 -0.448555
-0.635139 0.606637 -0.47811
-0.612721 0.601796 -0.512263
-0.583979 0.597094 -0.549952
-0.546055 0.594463 -0.590285
-0.494336 0.594825 -0.633889
-0.419423 0.597037 -0.683836
-0.29772 0.605741 -0.737862
-0.883785 0.345212 0.315838
-0.763975 0.351302 0.54123
-0.564888 0.287106 0.773609
-0.332431 0.198214 0.922063
-0.128128 0.111741 0.985443
0.0335031 0.0335031 0.998877
0.163726 -0.0435367 0.985545
0.277792 -0.130055 0.951797
0.388524 -0.237094 0.890413
0.50244 -0.37276 0.780131
0.609964 -0.531749 0.587526
0.673967 -0.677875 0.293689
0.651833 -0.756453 -0.0537827
0.54686 -0.754278 -0.363329
0.395219 -0.705129 -0.588723
0.222427 -0.641991 -0.733739
0.0393424 -0.580967 -0.812975
-0.146698 -0.527522 -0.836779
-0.327153 -0.4819 -0.812862
-0.493307 -0.441121 -0.749707
-0.638696 -0.399821 -0.657428
-0.760169 -0.351033 -0.546735
-0.856671 -0.287843 -0.42809
-0.927411 -0.206383 -0.311953
-0.971638 -0.109774 -0.209448
-0.991388 -0.00847008 -0.130686
-0.993 0.0862168 -0.0807264
-0.983964 0.168606 -0.0581921
-0.969304 0.238962 -0.0578469
-0.951034 0.300201 -0.0735811
-0.929504 0.355032 -0.0998765
-0.904791 0.404832 -0.132151
-0.877416 0.449821 -0.166742
-0.848485 0.489582 -0.200954
-0.819369 0.523754 -0.23306
-0.791156 0.552657 -0.261998
-0.764636 0.576913 -0.287233
-0.74052 0.59673 -0.309102
-0.719215 0.611953 -0.329003
-0.700576 0.622365 -0.349078
-0.683846 0.627851 -0.371697
-0.667619 0.628619 -0.398901
-0.64996 0.6254 -0.431771
-0.628716 0.6195 -0.470037
-0.601796 0.612721 -0.512263
-0.567037 0.6071 -0.556686
-0.521362 0.604273 -0.602524
-0.458687 0.60435 -0.651434
-0.36417 0.606678 -0.706628
-0.196364 0.641419 -0.741636
-0.935097 0.321441 0.149228
-0.84248 0.427986 0.327192
-0.707143 0.396418 0.585492
-0.495018 0.316984 0.808998
-0.270614 0.22406 0.93625
-0.0826637 0.139718 0.986735
0.0648927 0.0648927 0.99578
0.185117 -0.00921693 0.982673
0.292539 -0.0938423 0.951638
0.399409 -0.200695 0.894536
0.512053 -0.339251 0.78912
0.620085 -0.50602 0.599531
0.683022 -0.664341 0.303533
0.654222 -0.754667 -0.049707
0.538291 -0.760646 -0.36285
0.374598 -0.716884 -0.588009
0.189489 -0.657053 -0.729641
-0.00595208 -0.597043 -0.802187
-0.203165 -0.54194 -0.815491
-0.39177 -0.49174 -0.777629
-0.561527 -0.443392 -0.698635
-0.705282 -0.391706 -0.590884
-0.819962 -0.33032 -0.467494
-0.905008 -0.253881 -0.341327
-0.960926 -0.16136 -0.224911
-0.98977 -0.0589919 -0.129903
-0.997057 0.0421206 -0.0640517
-0.990672 0.133307 -0.028249
-0.97706 0.212215 -0.0178372
-0.959394 0.280851 -0.0261871
-0.938514 0.342014 -0.0470935
-0.914566 0.397329 -0.0754925
-0.88798 0.447162 -0.107413
-0.859787 0.491102 -0.13995
-0.831341 0.528724 -0.171241
-0.803667 0.560439 -0.200068
-0.777443 0.587078 -0.22566
-0.753387 0.608954 -0.248158
-0.732032 0.625949 -0.268918
-0.713398 0.637866 -0.290156
-0.696915 0.644556 -0.314416
-0.681309 0.646135 -0.343989
-0.664653 0.643197 -0.380176
-0.644736 0.63686 -0.422759
-0.6195 0.628716 -0.470037
-0.587164 0.620724 -0.519558
-0.545687 0.614861 -0.569361
-0.491263 0.61228 -0.619495
-0.41479 0.612359 -0.673028
-0.290258 0.620573 -0.72845
-0.877352 0.46414 0.121768
-0.80175 0.48055 0.355342
-0.649087 0.427938 0.628932
-0.430615 0.338314 0.836729
-0.217068 0.244711 0.944986
-0.0435367 0.163726 0.985545
0.0926115 0.0926115 0.991386
0.204837 0.0215684 0.978558
0.306916 -0.0609126 0.949785
0.410681 -0.167091 0.896338
0.522318 -0.307755 0.79528
0.63064 -0.481367 0.608752
0.691914 -0.651321 0.311506
0.655702 -0.753611 -0.0461009
0.528005 -0.768364 -0.361701
0.351174 -0.730396 -0.585832
0.152344 -0.673709 -0.723123
-0.0568116 -0.613816 -0.787402
-0.265767 -0.555409 -0.787965
-0.461647 -0.498421 -0.733797
-0.632476 -0.440112 -0.637397
-0.770773 -0.376051 -0.51429
-0.874349 -0.301193 -0.380522
-0.944324 -0.212421 -0.251255
-0.983853 -0.111556 -0.139959
-0.998368 -0.00664112 -0.0567267
-0.995707 0.0924113 -0.00530166
-0.983479 0.180176 0.0174679
-0.96628 0.256839 0.0183445
-0.945749 0.32487 0.004264
-0.922268 0.386078 -0.019103
-0.896246 0.441018 -0.047387
-0.868651 0.489338 -0.0774218
-0.840847 0.530551 -0.107195
-0.813798 0.565174 -0.135322
-0.788018 0.594294 -0.160754
-0.764205 0.618348 -0.183403
-0.743002 0.637256 -0.204579
-0.724589 0.650872 -0.226577
-0.708595 0.659033 -0.252126