# vtk DataFile Version 2.0
tmp/0.000.00-10.000.000.001.0098.vtk
ASCII
DATASET UNSTRUCTURED_GRID
POINTS 5100 float
0.5 0 0
1.5 0 0
2.5 0 0
3.5 0 0
4.5 0 0
5.5 0 0
6.5 0 0
7.5 0 0
8.5 0 0
9.5 0 0
10.5 0 0
11.5 0 0
12.5 0 0
13.5 0 0
14.5 0 0
15.5 0 0
16.5 0 0
17.5 0 0
18.5 0 0
19.5 0 0
20.5 0 0
21.5 0 0
22.5 0 0
23.5 0 0
24.5 0 0
25.5 0 0
26.5 0 0
27.5 0 0
28.5 0 0
29.5 0 0
30.5 0 0
31.5 0 0
32.5 0 0
33.5 0 0
34.5 0 0
35.5 0 0
36.5 0 0
37.5 0 0
38.5 0 0
39.5 0 0
40.5 0 0
41.5 0 0
42.5 0 0
43.5 0 0
44.5 0 0
45.5 0 0
46.5 0 0
47.5 0 0
48.5 0 0
49.5 0 0
0 0.5 0
1 0.5 0
2 0.5 0
3 0.5 0
4 0.5 0
5 0.5 0
6 0.5 0
7 0.5 0
8 0.5 0
9 0.5 0
10 0.5 0
11 0.5 0
12 0.5 0
13 0.5 0
14 0.5 0
15 0.5 0
16 0.5 0
17 0.5 0
18 0.5 0
19 0.5 0
20 0.5 0
21 0.5 0
22 0.5 0
23 0.5 0
24 0.5 0
25 0.5 0
26 0.5 0
27 0.5 0
28 0.5 0
29 0.5 0
30 0.5 0
31 0.5 0
32 0.5 0
33 0.5 0
34 0.5 0
35 0.5 0
36 0.5 0
37 0.5 0
38 0.5 0
39 0.5 0
40 0.5 0
41 0.5 0
42 0.5 0
43 0.5 0
44 0.5 0
45 0.5 0
46 0.5 0
47 0.5 0
48 0.5 0
49 0.5 0
50 0.5 0
0.5 1 0
1.5 1 0
2.5 1 0
3.5 1 0
4.5 1 0
5.5 1 0
6.5 1 0
7.5 1 0
8.5 1 0
9.5 1 0
10.5 1 0
11.5 1 0
12.5 1 0
13.5 1 0
14.5 1 0
15.5 1 0
16.5 1 0
17.5 1 0
18.5 1 0
19.5 1 0
20.5 1 0
21.5 1 0
22.5 1 0
23.5 1 0
24.5 1 0
25.5 1 0
26.5 1 0
27.5 1 0
28.5 1 0
29.5 1 0
30.5 1 0
31.5 1 0
32.5 1 0
33.5 1 0
34.5 1 0
35.5 1 0
36.5 1 0
37.5 1 0
38.5 1 0
39.5 1 0
40.5 1 0
41.5 1 0
42.5 1 0
43.5 1 0
44.5 1 0
45.5 1 0
46.5 1 0
47.5 1 0
48.5 1 0
49.5 1 0
0 1.5 0
1 1.5 0
2 1.5 0
3 1.5 0
4 1.5 0
5 1.5 0
6 1.5 0
7 1.5 0
8 1.5 0
9 1.5 0
10 1.5 0
11 1.5 0
12 1.5 0
13 1.5 0
14 1.5 0
15 1.5 0
16 1.5 0
17 1.5 0
18 1.5 0
19 1.5 0
20 1.5 0
21 1.5 0
22 1.5 0
23 1.5 0
24 1.5 0
25 1.5 0
26 1.5 0
27 1.5 0
28 1.5 0
29 1.5 0
30 1.5 0
31 1.5 0
32 1.5 0
33 1.5 0
34 1.5 0
35 1.5 0
36 1.5 0
37 1.5 0
38 1.5 0
39 1.5 0
40 1.5 0
41 1.5 0
42 1.5 0
43 1.5 0
44 1.5 0
45 1.5 0
46 1.5 0
47 1.5 0
48 1.5 0
49 1.5 0
50 1.5 0
0.5 2 0
1.5 2 0
2.5 2 0
3.5 2 0
4.5 2 0
5.5 2 0
6.5 2 0
7.5 2 0
8.5 2 0
9.5 2 0
10.5 2 0
11.5 2 0
12.5 2 0
13.5 2 0
14.5 2 0
15.5 2 0
16.5 2 0
17.5 2 0
18.5 2 0
19.5 2 0
20.5 2 0
21.5 2 0
22.5 2 0
23.5 2 0
24.5 2 0
25.5 2 0
26.5 2 0
27.5 2 0
28.5 2 0
29.5 2 0
30.5 2 0
31.5 2 0
32.5 2 0
33.5 2 0
34.5 2 0
35.5 2 0
36.5 2 0
37.5 2 0
38.5 2 0
39.5 2 0
40.5 2 0
41.5 2 0
42.5 2 0
43.5 2 0
44.5 2 0
45.5 2 0
46.5 2 0
47.5 2 0
48.5 2 0
49.5 2 0
0 2.5 0
1 2.5 0
2 2.5 0
3 2.5 0
4 2.5 0
5 2.5 0
6 2.5 0
7 2.5 0
8 2.5 0
9 2.5 0
10 2.5 0
11 2.5 0
12 2.5 0
13 2.5 0
14 2.5 0
15 2.5 0
16 2.5 0
17 2.5 0
18 2.5 0
19 2.5 0
20 2.5 0
21 2.5 0
22 2.5 0
23 2.5 0
24 2.5 0
25 2.5 0
26 2.5 0
27 2.5 0
28 2.5 0
29 2.5 0
30 2.5 0
31 2.5 0
32 2.5 0
33 2.5 0
34 2.5 0
35 2.5 0
36 2.5 0
37 2.5 0
38 2.5 0
39 2.5 0
40 2.5 0
41 2.5 0
42 2.5 0
43 2.5 0
44 2.5 0
45 2.5 0
46 2.5 0
47 2.5 0
48 2.5 0
49 2.5 0
50 2.5 0
0.5 3 0
1.5 3 0
2.5 3 0
3.5 3 0
4.5 3 0
5.5 3 0
6.5 3 0
7.5 3 0
8.5 3 0
9.5 3 0
10.5 3 0
11.5 3 0
12.5 3 0
13.5 3 0
14.5 3 0
15.5 3 0
16.5 3 0
17.5 3 0
18.5 3 0
19.5 3 0
20.5 3 0
21.5 3 0
22.5 3 0
23.5 3 0
24.5 3 0
25.5 3 0
26.5 3 0
27.5 3 0
28.5 3 0
29.5 3 0
30.5 3 0
31.5 3 0
32.5 3 0
33.5 3 0
34.5 3 0
35.5 3 0
36.5 3 0
37.5 3 0
38.5 3 0
39.5 3 0
40.5 3 0
41.5 3 0
42.5 3 0
43.5 3 0
44.5 3 0
45.5 3 0
46.5 3 0
47.5 3 0
48.5 3 0
49.5 3 0
0 3.5 0
1 3.5 0
2 3.5 0
3 3.5 0
4 3.5 0
5 3.5 0
6 3.5 0
7 3.5 0
8 3.5 0
9 3.5 0
10 3.5 0
11 3.5 0
12 3.5 0
13 3.5 0
14 3.5 0
15 3.5 0
16 3.5 0
17 3.5 0
18 3.5 0
19 3.5 0
20 3.5 0
21 3.5 0
22 3.5 0
23 3.5 0
24 3.5 0
25 3.5 0
26 3.5 0
27 3.5 0
28 3.5 0
29 3.5 0
30 3.5 0
31 3.5 0
32 3.5 0
33 3.5 0
34 3.5 0
35 3.5 0
36 3.5 0
37 3.5 0
38 3.5 0
39 3.5 0
40 3.5 0
41 3.5 0
42 3.5 0
43 3.5 0
44 3.5 0
45 3.5 0
46 3.5 0
47 3.5 0
48 3.5 0
49 3.5 0
50 3.5 0
0.5 4 0
1.5 4 0
2.5 4 0
3.5 4 0
4.5 4 0
5.5 4 0
6.5 4 0
7.5 4 0
8.5 4 0
9.5 4 0
10.5 4 0
11.5 4 0
12.5 4 0
13.5 4 0
14.5 4 0
15.5 4 0
16.5 4 0
17.5 4 0
18.5 4 0
19.5 4 0
20.5 4 0
21.5 4 0
22.5 4 0
23.5 4 0
24.5 4 0
25.5 4 0
26.5 4 0
27.5 4 0
28.5 4 0
29.5 4 0
30.5 4 0
31.5 4 0
32.5 4 0
33.5 4 0
34.5 4 0
35.5 4 0
36.5 4 0
37.5 4 0
38.5 4 0
39.5 4 0
40.5 4 0
41.5 4 0
42.5 4 0
43.5 4 0
44.5 4 0
45.5 4 0
46.5 4 0
47.5 4 0
48.5 4 0
49.5 4 0
0 4.5 0
1 4.5 0
2 4.5 0
3 4.5 0
4 4.5 0
5 4.5 0
6 4.5 0
7 4.5 0
8 4.5 0
9 4.5 0
10 4.5 0
11 4.5 0
12 4.5 0
13 4.5 0
14 4.5 0
15 4.5 0
16 4.5 0
17 4.5 0
18 4.5 0
19 4.5 0
20 4.5 0
21 4.5 0
22 4.5 0
23 4.5 0
24 4.5 0
25 4.5 0
26 4.5 0
27 4.5 0
28 4.5 0
29 4.5 0
30 4.5 0
31 4.5 0
32 4.5 0
33 4.5 0
34 4.5 0
35 4.5 0
36 4.5 0
37 4.5 0
38 4.5 0
39 4.5 0
40 4.5 0
41 4.5 0
42 4.5 0
43 4.5 0
44 4.5 0
45 4.5 0
46 4.5 0
47 4.5 0
48 4.5 0
49 4.5 0
50 4.5 0
0.5 5 0
1.5 5 0
2.5 5 0
3.5 5 0
4.5 5 0
5.5 5 0
6.5 5 0
7.5 5 0
8.5 5 0
9.5 5 0
10.5 5 0
11.5 5 0
12.5 5 0
13.5 5 0
14.5 5 0
15.5 5 0
16.5 5 0
17.5 5 0
18.5 5 0
19.5 5 0
20.5 5 0
21.5 5 0
22.5 5 0
23.5 5 0
24.5 5 0
25.5 5 0
26.5 5 0
27.5 5 0
28.5 5 0
29.5 5 0
30.5 5 0
31.5 5 0
32.5 5 0
33.5 5 0
34.5 5 0
35.5 5 0
36.5 5 0
37.5 5 0
38.5 5 0
39.5 5 0
40.5 5 0
41.5 5 0
42.5 5 0
43.5 5 0
44.5 5 0
45.5 5 0
46.5 5 0
47.5 5 0
48.5 5 0
49.5 5 0
0 5.5 0
1 5.5 0
2 5.5 0
3 5.5 0
4 5.5 0
5 5.5 0
6 5.5 0
7 5.5 0
8 5.5 0
9 5.5 0
10 5.5 0
11 5.5 0
12 5.5 0
13 5.5 0
14 5.5 0
15 5.5 0
16 5.5 0
17 5.5 0
18 5.5 0
19 5.5 0
20 5.5 0
21 5.5 0
22 5.5 0
23 5.5 0
24 5.5 0
25 5.5 0
26 5.5 0
27 5.5 0
28 5.5 0
29 5.5 0
30 5.5 0
31 5.5 0
32 5.5 0
33 5.5 0
34 5.5 0
35 5.5 0
36 5.5 0
37 5.5 0
38 5.5 0
39 5.5 0
40 5.5 0
41 5.5 0
42 5.5 0
43 5.5 0
44 5.5 0
45 5.5 0
46 5.5 0
47 5.5 0
48 5.5 0
49 5.5 0
50 5.5 0
0.5 6 0
1.5 6 0
2.5 6 0
3.5 6 0
4.5 6 0
5.5 6 0
6.5 6 0
7.5 6 0
8.5 6 0
9.5 6 0
10.5 6 0
11.5 6 0
12.5 6 0
13.5 6 0
14.5 6 0
15.5 6 0
16.5 6 0
17.5 6 0
18.5 6 0
19.5 6 0
20.5 6 0
21.5 6 0
22.5 6 0
23.5 6 0
24.5 6 0
25.5 6 0
26.5 6 0
27.5 6 0
28.5 6 0
29.5 6 0
30.5 6 0
31.5 6 0
32.5 6 0
33.5 6 0
34.5 6 0
35.5 6 0
36.5 6 0
37.5 6 0
38.5 6 0
39.5 6 0
40.5 6 0
41.5 6 0
42.5 6 0
43.5 6 0
44.5 6 0
45.5 6 0
46.5 6 0
47.5 6 0
48.5 6 0
49.5 6 0
0 6.5 0
1 6.5 0
2 6.5 0
3 6.5 0
4 6.5 0
5 6.5 0
6 6.5 0
7 6.5 0
8 6.5 0
9 6.5 0
10 6.5 0
11 6.5 0
12 6.5 0
13 6.5 0
14 6.5 0
15 6.5 0
16 6.5 0
17 6.5 0
18 6.5 0
19 6.5 0
20 6.5 0
21 6.5 0
22 6.5 0
23 6.5 0
24 6.5 0
25 6.5 0
26 6.5 0
27 6.5 0
28 6.5 0
29 6.5 0
30 6.5 0
31 6.5 0
32 6.5 0
33 6.5 0
34 6.5 0
35 6.5 0
36 6.5 0
37 6.5 0
38 6.5 0
39 6.5 0
40 6.5 0
41 6.5 0
42 6.5 0
43 6.5 0
44 6.5 0
45 6.5 0
46 6.5 0
47 6.5 0
48 6.5 0
49 6.5 0
50 6.5 0
0.5 7 0
1.5 7 0
2.5 7 0
3.5 7 0
4.5 7 0
5.5 7 0
6.5 7 0
7.5 7 0
8.5 7 0
9.5 7 0
10.5 7 0
11.5 7 0
12.5 7 0
13.5 7 0
14.5 7 0
15.5 7 0
16.5 7 0
17.5 7 0
18.5 7 0
19.5 7 0
20.5 7 0
21.5 7 0
22.5 7 0
23.5 7 0
24.5 7 0
25.5 7 0
26.5 7 0
27.5 7 0
28.5 7 0
29.5 7 0
30.5 7 0
31.5 7 0
32.5 7 0
33.5 7 0
34.5 7 0
35.5 7 0
36.5 7 0
37.5 7 0
38.5 7 0
39.5 7 0
40.5 7 0
41.5 7 0
42.5 7 0
43.5 7 0
44.5 7 0
45.5 7 0
46.5 7 0
47.5 7 0
48.5 7 0
49.5 7 0
0 7.5 0
1 7.5 0
2 7.5 0
3 7.5 0
4 7.5 0
5 7.5 0
6 7.5 0
7 7.5 0
8 7.5 0
9 7.5 0
10 7.5 0
11 7.5 0
12 7.5 0
13 7.5 0
14 7.5 0
15 7.5 0
16 7.5 0
17 7.5 0
18 7.5 0
19 7.5 0
20 7.5 0
21 7.5 0
22 7.5 0
23 7.5 0
24 7.5 0
25 7.5 0
26 7.5 0
27 7.5 0
28 7.5 0
29 7.5 0
30 7.5 0
31 7.5 0
32 7.5 0
33 7.5 0
34 7.5 0
35 7.5 0
36 7.5 0
37 7.5 0
38 7.5 0
39 7.5 0
40 7.5 0
41 7.5 0
42 7.5 0
43 7.5 0
44 7.5 0
45 7.5 0
46 7.5 0
47 7.5 0
48 7.5 0
49 7.5 0
50 7.5 0
0.5 8 0
1.5 8 0
2.5 8 0
3.5 8 0
4.5 8 0
5.5 8 0
6.5 8 0
7.5 8 0
8.5 8 0
9.5 8 0
10.5 8 0
11.5 8 0
12.5 8 0
13.5 8 0
14.5 8 0
15.5 8 0
16.5 8 0
17.5 8 0
18.5 8 0
19.5 8 0
20.5 8 0
21.5 8 0
22.5 8 0
23.5 8 0
24.5 8 0
25.5 8 0
26.5 8 0
27.5 8 0
28.5 8 0
29.5 8 0
30.5 8 0
31.5 8 0
32.5 8 0
33.5 8 0
34.5 8 0
35.5 8 0
36.5 8 0
37.5 8 0
38.5 8 0
39.5 8 0
40.5 8 0
41.5 8 0
42.5 8 0
43.5 8 0
44.5 8 0
45.5 8 0
46.5 8 0
47.5 8 0
48.5 8 0
49.5 8 0
0 8.5 0
1 8.5 0
2 8.5 0
3 8.5 0
4 8.5 0
5 8.5 0
6 8.5 0
7 8.5 0
8 8.5 0
9 8.5 0
10 8.5 0
11 8.5 0
12 8.5 0
13 8.5 0
14 8.5 0
15 8.5 0
16 8.5 0
17 8.5 0
18 8.5 0
19 8.5 0
20 8.5 0
21 8.5 0
22 8.5 0
23 8.5 0
24 8.5 0
25 8.5 0
26 8.5 0
27 8.5 0
28 8.5 0
29 8.5 0
30 8.5 0
31 8.5 0
32 8.5 0
33 8.5 0
34 8.5 0
35 8.5 0
36 8.5 0
37 8.5 0
38 8.5 0
39 8.5 0
40 8.5 0
41 8.5 0
42 8.5 0
43 8.5 0
44 8.5 0
45 8.5 0
46 8.5 0
47 8.5 0
48 8.5 0
49 8.5 0
50 8.5 0
0.5 9 0
1.5 9 0
2.5 9 0
3.5 9 0
4.5 9 0
5.5 9 0
6.5 9 0
7.5 9 0
8.5 9 0
9.5 9 0
10.5 9 0
11.5 9 0
12.5 9 0
13.5 9 0
14.5 9 0
15.5 9 0
16.5 9 0
17.5 9 0
18.5 9 0
19.5 9 0
20.5 9 0
21.5 9 0
22.5 9 0
23.5 9 0
24.5 9 0
25.5 9 0
26.5 9 0
27.5 9 0
28.5 9 0
29.5 9 0
30.5 9 0
31.5 9 0
32.5 9 0
33.5 9 0
34.5 9 0
35.5 9 0
36.5 9 0
37.5 9 0
38.5 9 0
39.5 9 0
40.5 9 0
41.5 9 0
42.5 9 0
43.5 9 0
44.5 9 0
45.5 9 0
46.5 9 0
47.5 9 0
48.5 9 0
49.5 9 0
0 9.5 0
1 9.5 0
2 9.5 0
3 9.5 0
4 9.5 0
5 9.5 0
6 9.5 0
7 9.5 0
8 9.5 0
9 9.5 0
10 9.5 0
11 9.5 0
12 9.5 0
13 9.5 0
14 9.5 0
15 9.5 0
16 9.5 0
17 9.5 0
18 9.5 0
19 9.5 0
20 9.5 0
21 9.5 0
22 9.5 0
23 9.5 0
24 9.5 0
25 9.5 0
26 9.5 0
27 9.5 0
28 9.5 0
29 9.5 0
30 9.5 0
31 9.5 0
32 9.5 0
33 9.5 0
34 9.5 0
35 9.5 0
36 9.5 0
37 9.5 0
38 9.5 0
39 9.5 0
40 9.5 0
41 9.5 0
42 9.5 0
43 9.5 0
44 9.5 0
45 9.5 0
46 9.5 0
47 9.5 0
48 9.5 0
49 9.5 0
50 9.5 0
0.5 10 0
1.5 10 0
2.5 10 0
3.5 10 0
4.5 10 0
5.5 10 0
6.5 10 0
7.5 10 0
8.5 10 0
9.5 10 0
10.5 10 0
11.5 10 0
12.5 10 0
13.5 10 0
14.5 10 0
15.5 10 0
16.5 10 0
17.5 10 0
18.5 10 0
19.5 10 0
20.5 10 0
21.5 10 0
22.5 10 0
23.5 10 0
24.5 10 0
25.5 10 0
26.5 10 0
27.5 10 0
28.5 10 0
29.5 10 0
30.5 10 0
31.5 10 0
32.5 10 0
33.5 10 0
34.5 10 0
35.5 10 0
36.5 10 0
37.5 10 0
38.5 10 0
39.5 10 0
40.5 10 0
41.5 10 0
42.5 10 0
43.5 10 0
44.5 10 0
45.5 10 0
46.5 10 0
47.5 10 0
48.5 10 0
49.5 10 0
0 10.5 0
1 10.5 0
2 10.5 0
3 10.5 0
4 10.5 0
5 10.5 0
6 10.5 0
7 10.5 0
8 10.5 0
9 10.5 0
10 10.5 0
11 10.5 0
12 10.5 0
13 10.5 0
14 10.5 0
15 10.5 0
16 10.5 0
17 10.5 0
18 10.5 0
19 10.5 0
20 10.5 0
21 10.5 0
22 10.5 0
23 10.5 0
24 10.5 0
25 10.5 0
26 10.5 0
27 10.5 0
28 10.5 0
29 10.5 0
30 10.5 0
31 10.5 0
32 10.5 0
33 10.5 0
34 10.5 0
35 10.5 0
36 10.5 0
37 10.5 0
38 10.5 0
39 10.5 0
40 10.5 0
41 10.5 0
42 10.5 0
43 10.5 0
44 10.5 0
45 10.5 0
46 10.5 0
47 10.5 0
48 10.5 0
49 10.5 0
50 10.5 0
[...]
POINT_DATA 5100
VECTORS velocity float
0.604429 0.555456 0.571081
0.584927 0.475118 0.657361
0.576049 0.400987 0.712304
0.599405 0.306279 0.739531
0.643874 0.178342 0.744056
0.691844 0.0192567 0.72179
0.7257 -0.158281 0.669557
0.733786 -0.336143 0.590395
0.713236 -0.49797 0.493275
0.668107 -0.634164 0.389189
0.605247 -0.742311 0.287488
0.531014 -0.824743 0.194483
0.449911 -0.88579 0.113828
0.364637 -0.929937 0.0475103
0.276734 -0.960941 -0.00331734
0.187332 -0.981565 -0.037903
0.0976873 -0.99365 -0.0558326
0.00941222 -0.998319 -0.0571918
-0.0756149 -0.99622 -0.0427675
-0.155547 -0.987727 -0.0141371
-0.228922 -0.973086 0.026426
-0.294912 -0.952482 0.0761955
-0.353401 -0.92607 0.132294
-0.404899 -0.893985 0.191959
-0.45035 -0.856343 0.25271
-0.490913 -0.813258 0.312434
-0.527765 -0.764863 0.369389
-0.561949 -0.711328 0.422168
-0.59427 -0.652888 0.469659
-0.625243 -0.589866 0.511008
-0.655073 -0.522688 0.545597
-0.683674 -0.451909 0.573034
-0.710715 -0.37821 0.593162
-0.735693 -0.302404 0.606059
-0.758023 -0.225409 0.612039
-0.777138 -0.148219 0.611626
-0.792583 -0.0718446 0.605516
-0.804089 0.00274605 0.594503
-0.811615 0.0746983 0.579398
-0.815356 0.143334 0.560937
-0.815708 0.208201 0.539697
-0.813206 0.269107 0.51602
-0.80844 0.32613 0.489963
-0.801951 0.379612 0.46127
-0.794126 0.430139 0.429354
-0.78507 0.47853 0.393287
-0.774482 0.525814 0.351706
-0.761601 0.57317 0.30239
-0.745254 0.621793 0.24077
-0.721946 0.673638 0.158134
0.555456 0.604429 0.571081
0.549479 0.510932 0.661076
0.569284 0.426316 0.702972
0.618532 0.327885 0.714079
0.684843 0.201405 0.700305
0.750088 0.0443557 0.659849
0.795453 -0.133546 0.591118
0.807729 -0.314893 0.498413
0.783598 -0.482088 0.391874
0.728535 -0.623584 0.283514
0.652237 -0.735531 0.183252
0.564355 -0.819783 0.0972606
0.472315 -0.880975 0.0282944
0.380883 -0.924332 -0.0232169
0.292594 -0.95447 -0.0581024
0.208427 -0.974947 -0.0776952
0.128444 -0.988204 -0.0833999
0.052292 -0.995696 -0.076514
-0.0204464 -0.998094 -0.0582211
-0.0900495 -0.995495 -0.0296812
-0.156587 -0.987633 0.00785214
-0.219953 -0.974073 0.0529428
-0.27996 -0.954368 0.103945
-0.33645 -0.928173 0.159047
-0.389374 -0.895308 0.216362
-0.438826 -0.855765 0.274039
-0.485023 -0.8097 0.330361
-0.528245 -0.757393 0.383814
-0.568764 -0.699224 0.433121
-0.606764 -0.635662 0.477254
-0.642298 -0.567254 0.515438
-0.675252 -0.494644 0.54714
-0.705356 -0.418577 0.572072
-0.732219 -0.339913 0.590182
-0.755391 -0.259623 0.601648
-0.774445 -0.178763 0.60686
-0.78906 -0.0984316 0.606379
-0.799093 -0.0197124 0.600884
-0.804628 0.0564023 0.591094
-0.805982 0.129081 0.577694
-0.803686 0.197716 0.561246
-0.798422 0.261963 0.542123
-0.790949 0.321762 0.520451
-0.782002 0.377337 0.496074
-0.772198 0.429167 0.468535
-0.76192 0.477973 0.437057
-0.751189 0.524708 0.400495
-0.739519 0.570598 0.357113
-0.72578 0.617232 0.303756
-0.707195 0.666964 0.234595
-0.673638 0.721946 0.158134
0.510932 0.549479 0.661076
0.530928 0.474802 0.701911
0.592431 0.382373 0.709095
0.674681 0.264552 0.68907
0.757897 0.117369 0.64173
0.822208 -0.0534339 0.566673
0.852248 -0.233609 0.468082
0.841741 -0.406248 0.355575
0.793989 -0.558041 0.241186
0.718365 -0.682323 0.135599
0.625926 -0.778523 0.0460338
0.52642 -0.849887 -0.0239805
0.427034 -0.901219 -0.0738023
0.332296 -0.937354 -0.104629
0.244506 -0.962368 -0.118593
0.164314 -0.979311 -0.118115
0.0912738 -0.990221 -0.105508
0.0243063 -0.996272 -0.0827781
-0.0379357 -0.997948 -0.0515784
-0.0967948 -0.995216 -0.0132598
-0.153421 -0.987674 0.0310188
-0.208663 -0.974697 0.0801647
-0.263022 -0.955573 0.133042
-0.316675 -0.929635 0.188404
-0.369524 -0.896373 0.244884
-0.421281 -0.855511 0.301037
-0.471541 -0.807048 0.355417
-0.51985 -0.75125 0.406668
-0.565734 -0.688615 0.453603
-0.608711 -0.619827 0.495262
-0.648294 -0.545719 0.530949
-0.683981 -0.467236 0.560232
-0.715273 -0.385428 0.582949
-0.741703 -0.301432 0.599179
-0.762886 -0.216457 0.609222
-0.778587 -0.131747 0.613551
-0.788772 -0.0485313 0.612766
-0.793657 0.0320446 0.607521
-0.793709 0.108997 0.598452
-0.789627 0.181569 0.586107
-0.78228 0.249283 0.570873
-0.772627 0.311967 0.552924
-0.761621 0.369751 0.532183
-0.750113 0.423044 0.508295
-0.738749 0.472509 0.48061
-0.727844 0.519043 0.448148
-0.717218 0.563844 0.409486
-0.705887 0.608612 0.362374
-0.691373 0.655762 0.30328
-0.666964 0.707195 0.234595
0.475118 0.584927 0.657361
0.474802 0.530928 0.701911
0.532789 0.45901 0.710947
0.620922 0.358049 0.697321
0.718843 0.226883 0.657106
0.805387 0.0678073 0.588859
0.86213 -0.108786 0.49487
0.878048 -0.287235 0.38279
0.851854 -0.452396 0.263974
0.790288 -0.594086 0.150023
0.704149 -0.708291 0.0499876
0.604626 -0.795917 -0.0307151
0.501091 -0.860696 -0.0900576
0.40025 -0.907349 -0.128524
0.306175 -0.94038 -0.14813
0.220735 -0.963481 -0.151589
0.144162 -0.979353 -0.14172
0.0755838 -0.989761 -0.121081
0.0134863 -0.995686 -0.0917973
-0.0439195 -0.997491 -0.0555289
-0.0984119 -0.995054 -0.0135346
-0.151546 -0.987892 0.0332034
-0.204508 -0.975269 0.0838296
-0.258026 -0.956307 0.137473
-0.312348 -0.930127 0.19314
-0.36727 -0.89598 0.249664
-0.422218 -0.853384 0.305726
-0.476359 -0.802204 0.359931
-0.528729 -0.742691 0.41092
-0.578331 -0.675455 0.457486
-0.624218 -0.6014 0.498667
-0.665536 -0.52165 0.5338
-0.701547 -0.437479 0.562533
-0.731655 -0.350262 0.584806
-0.755433 -0.261434 0.600811
-0.772666 -0.172448 0.610941
-0.783391 -0.0847299 0.615727
-0.787927 0.000394303 0.615768
-0.786879 0.0817699 0.611666
-0.781104 0.158488 0.603952
-0.771651 0.229942 0.593028
-0.759668 0.295856 0.579114
-0.746309 0.356286 0.562212
-0.732626 0.41159 0.542082
-0.719475 0.462388 0.518222
-0.707411 0.509528 0.489847
-0.696539 0.554121 0.455832
-0.686202 0.597723 0.414553
-0.674303 0.642628 0.363792
-0.655762 0.691373 0.30328
-0.621793 0.745254 0.24077
0.426316 0.569284 0.702972
0.45901 0.532789 0.710947
0.545624 0.455813 0.703227
0.652826 0.346012 0.673864
0.759283 0.204579 0.617768
0.844324 0.0379359 0.534488
0.892329 -0.140999 0.428799
0.896375 -0.316702 0.31018
0.858644 -0.475983 0.190185
0.787739 -0.61087 0.0794052
0.695005 -0.718859 -0.0144984
0.591512 -0.801546 -0.0873887
0.486269 -0.862802 -0.13826
0.385547 -0.907198 -0.168363
0.292959 -0.938981 -0.180251
0.209919 -0.961568 -0.176976
0.136225 -0.977422 -0.161521
0.0706086 -0.988124 -0.136476
0.0112099 -0.994525 -0.103894
-0.0440556 -0.996893 -0.06529
-0.0972062 -0.995027 -0.0217338
-0.149976 -0.988348 0.0260059
-0.203652 -0.975988 0.077288
-0.258976 -0.9569 0.131432
-0.316089 -0.929999 0.187588
-0.374561 -0.894339 0.244667
-0.433476 -0.849284 0.301357
-0.491579 -0.794645 0.356215
-0.547455 -0.730741 0.407812
-0.59969 -0.658371 0.454885
-0.647001 -0.578726 0.496454
-0.688314 -0.493268 0.531893
-0.722807 -0.403623 0.560926
-0.749929 -0.311491 0.583592
-0.769423 -0.218584 0.600174
-0.781351 -0.126562 0.611124
-0.786105 -0.0369668 0.616987
-0.784404 0.0488531 0.618324
-0.777255 0.12982 0.615647
-0.76588 0.20519 0.609364
-0.751617 0.274582 0.599731
-0.735809 0.337979 0.586818
-0.719701 0.395696 0.570488
-0.704334 0.448321 0.550384
-0.690457 0.496672 0.525914
-0.678409 0.541776 0.496226
-0.667863 0.584994 0.460153
-0.657235 0.628299 0.416272
-0.642628 0.674303 0.363792
-0.617232 0.72578 0.303756
0.400987 0.576049 0.712304
0.382373 0.592431 0.709095
0.455813 0.545624 0.703227
0.565856 0.46181 0.683036
0.687074 0.343549 0.640237
0.797738 0.194138 0.570898
0.8789 0.022847 0.476459
0.918354 -0.156381 0.363552
0.912693 -0.329052 0.242313
0.866365 -0.483838 0.123746
0.788886 -0.614295 0.0173439
0.691728 -0.718724 -0.0703382
0.585783 -0.798959 -0.136099
0.479771 -0.858798 -0.179683
0.379608 -0.90262 -0.202917
0.288497 -0.934448 -0.20875
0.207424 -0.957495 -0.200445
0.135781 -0.974057 -0.181043
0.0719439 -0.985593 -0.15307
0.0137613 -0.992867 -0.118429
-0.0410722 -0.996073 -0.0784358
-0.0947237 -0.994925 -0.0339395
-0.149 -0.988731 0.0145095
-0.205179 -0.976465 0.0664613
-0.263888 -0.956886 0.121378
-0.325051 -0.928701 0.178483
-0.387908 -0.89079 0.236684
-0.451132 -0.842431 0.294602
-0.513017 -0.783474 0.350689
-0.571724 -0.714416 0.403412
-0.625497 -0.636354 0.45145
-0.672835 -0.550842 0.493828
-0.712585 -0.459726 0.529975
-0.743982 -0.364989 0.559709
-0.766656 -0.268633 0.583159
-0.780639 -0.172596 0.600678
-0.78636 -0.0786712 0.612739
-0.784628 0.0115685 0.619859
-0.776583 0.096853 0.622526
-0.763615 0.17628 0.621142
-0.747252 0.249352 0.615985
-0.729037 0.315972 0.607179
-0.710406 0.37641 0.594675
-0.692585 0.431233 0.578242
-0.676499 0.481234 0.557461
-0.662676 0.527391 0.531714
-0.651069 0.570903 0.500178
-0.640602 0.613397 0.461923
-0.628299 0.657235 0.416272
-0.608612 0.705887 0.362374
-0.57317 0.761601 0.30239
0.327885 0.618532 0.714079
0.358049 0.620922 0.697321
0.46181 0.565856 0.683036
0.591153 0.474919 0.651913
0.722129 0.349029 0.597251
0.833723 0.193738 0.51708
0.909704 0.0201262 0.414769
0.941404 -0.157992 0.29799
0.928127 -0.327644 0.176718
0.875608 -0.479145 0.0610849
0.793634 -0.607053 -0.0403902
0.693564 -0.709993 -0.12198
0.586109 -0.78972 -0.181161
0.479781 -0.849811 -0.218246
0.380222 -0.894408 -0.235513
0.29029 -0.927328 -0.236207
0.210596 -0.951626 -0.223736
0.14017 -0.969482 -0.201138
0.0770786 -0.982282 -0.170826
0.0189248 -0.99073 -0.134523
-0.036767 -0.994956 -0.0933271
-0.0922567 -0.994584 -0.0478595
-0.149359 -0.988782 0.0015362
-0.209261 -0.976336 0.0545735
-0.272392 -0.955785 0.110809
-0.338356 -0.925631 0.169476
-0.405976 -0.884621 0.229412
-0.473443 -0.832028 0.289105
-0.538586 -0.767862 0.346862
-0.599177 -0.692929 0.401044
-0.653214 -0.608725 0.450294
-0.699106 -0.51724 0.493673
-0.735765 -0.420721 0.530701
-0.762623 -0.321488 0.561295
-0.779617 -0.221795 0.585666
-0.787166 -0.123729 0.604202
-0.786138 -0.0291238 0.617364
-0.777788 0.0605265 0.625605
-0.763664 0.144135 0.629318
-0.745487 0.221066 0.628792
-0.725005 0.291131 0.624188
-0.703861 0.354546 0.615529
-0.683476 0.411854 0.602691
-0.66495 0.463839 0.585401
-0.648985 0.511449 0.563239
-0.635759 0.555781 0.535647
-0.624619 0.598189 0.502017
-0.613397 0.640602 0.461923
-0.597723 0.686202 0.414553
-0.570598 0.739519 0.357113
0.306279 0.599405 0.739531
0.264552 0.674681 0.68907
0.346012 0.652826 0.673864
0.474919 0.591153 0.651913
0.619387 0.493229 0.610807
0.756133 0.360837 0.545948
0.86602 0.201714 0.457517
0.936217 0.0277552 0.350326
0.961287 -0.148204 0.232299
0.942393 -0.314932 0.112759
0.885765 -0.464133 0.000928783
0.801025 -0.590974 -0.0954373
0.699263 -0.694065 -0.171187
0.591014 -0.774856 -0.224276
0.484646 -0.836578 -0.255452
0.3856 -0.883084 -0.26735
0.296461 -0.917989 -0.263453
0.217526 -0.944216 -0.247261
0.147518 -0.963874 -0.221779
0.0842387 -0.978302 -0.189287
0.0250873 -0.988167 -0.151313
-0.0325412 -0.993538 -0.108734
-0.0909543 -0.993926 -0.0619504
-0.151919 -0.98833 -0.0111161
-0.216463 -0.975316 0.0436108
-0.284726 -0.953185 0.10183
-0.355898 -0.92025 0.162718
-0.428292 -0.875187 0.224973
-0.499571 -0.817385 0.286898
-0.567102 -0.747153 0.346638
-0.628346 -0.665736 0.402464
-0.681174 -0.575128 0.453022
-0.724057 -0.477787 0.497454
-0.756118 -0.376353 0.535391
-0.777121 -0.273433 0.566848
-0.787419 -0.171454 0.592093
-0.787898 -0.072556 0.611516
-0.779904 0.0215025 0.62553
-0.765132 0.109417 0.634508
-0.745493 0.190386 0.638743
-0.722952 0.264107 0.638426
-0.699373 0.330732 0.633635
-0.676387 0.390775 0.624336
-0.655284 0.445014 0.610381
-0.636938 0.494387 0.591516
-0.62172 0.539936 0.567391
-0.609304 0.582836 0.537634
-0.598189 0.624619 0.502017
-0.584994 0.667863 0.460153
-0.563844 0.717218 0.409486
-0.525814 0.774482 0.351706
0.201405 0.684843 0.700305
0.226883 0.718843 0.657106
0.343549 0.687074 0.640237
0.493229 0.619387 0.610807
0.64844 0.514823 0.560788
0.787226 0.377325 0.487752
0.89339 0.216385 0.39374
0.957731 0.0437925 0.284311
0.977455 -0.129155 0.167037
0.954782 -0.293005 0.0503952
0.89587 -0.440621 -0.0571774
0.809871 -0.567509 -0.148465
0.707494 -0.672034 -0.218683
0.599086 -0.755168 -0.266116
0.492909 -0.819675 -0.291844
0.39427 -0.869065 -0.298793
0.305545 -0.906737 -0.290637
0.226781 -0.9355 -0.270942
0.156448 -0.957414 -0.242658
0.0921263 -0.973797 -0.207926
0.0310516 -0.985285 -0.168074
-0.0294728 -0.991875 -0.123759
-0.091758 -0.99294 -0.0751703
-0.157465 -0.987273 -0.0222956
-0.227379 -0.973184 0.0347955
-0.301253 -0.948731 0.0956854
-0.377756 -0.912077 0.159425
-0.454611 -0.861932 0.224502
-0.528926 -0.797945 0.289001
-0.597655 -0.720883 0.350906
-0.658066 -0.632555 0.408439
-0.708063 -0.535512 0.460297
-0.746334 -0.432682 0.505739
-0.772364 -0.327049 0.544512
-0.786367 -0.221431 0.576711
-0.789202 -0.118329 0.602626
-0.782276 -0.0198172 0.622616
-0.767417 0.0725405 0.637031
-0.746721 0.157741 0.646162
-0.722376 0.235343 0.65022
-0.696483 0.305415 0.649333
-0.670902 0.368436 0.643542
-0.647132 0.425175 0.632808
-0.626232 0.476571 0.617019
-0.608751 0.523646 0.596001
-0.594616 0.567474 0.569566
-0.582836 0.609304 0.537634
-0.570903 0.651069 0.500178
-0.554121 0.696539 0.455832
-0.524708 0.751189 0.400495
0.178342 0.643874 0.744056
0.117369 0.757897 0.64173
0.204579 0.759283 0.617768
0.349029 0.722129 0.597251
0.514823 0.64844 0.560788
0.676321 0.537849 0.503298
0.81387 0.396877 0.424386
0.914934 0.236063 0.327368
0.97372 0.0663312 0.217873
0.989371 -0.102858 0.102785
0.964534 -0.26376 -0.0102397
0.904911 -0.410224 -0.113367
0.818989 -0.53793 -0.199721
0.716997 -0.644853 -0.264727
0.609052 -0.731352 -0.306889
0.503324 -0.799614 -0.32754
0.405025 -0.852735 -0.329845
0.316387 -0.893871 -0.317639
0.237263 -0.92572 -0.294532
0.16592 -0.950307 -0.263414
0.0997637 -0.968941 -0.226277
0.0359044 -0.982223 -0.18425
-0.0284059 -0.990057 -0.137771
-0.0954299 -0.991642 -0.0868299
-0.166649 -0.98552 -0.0312735
-0.242511 -0.969719 0.0288681
-0.32226 -0.942063 0.0930904
-0.403936 -0.900644 0.160239
-0.484607 -0.84435 0.228537
-0.560843 -0.773265 0.29583
-0.629295 -0.688774 0.35997
-0.687194 -0.593339 0.419182
-0.732653 -0.490088 0.472264
-0.764746 -0.382381 0.518602
-0.783453 -0.27347 0.558047
-0.789542 -0.16628 0.590741
-0.784445 -0.0632655 0.616963
-0.770106 0.033694 0.637025
-0.748803 0.123349 0.651213
-0.722951 0.205087 0.659758
-0.694901 0.278869 0.662831
-0.666764 0.345125 0.660542
-0.640269 0.40461 0.652952
-0.616675 0.458272 0.640077
-0.596713 0.507132 0.621893
-0.580519 0.55222 0.598373
-0.567474 0.594616 0.569566
-0.555781 0.635759 0.535647
-0.541776 0.678409 0.496226
-0.519043 0.727844 0.448148
-0.47853 0.78507 0.393287
0.0443557 0.750088 0.659849
0.0678073 0.805387 0.588859
0.194138 0.797738 0.570898
0.360837 0.756133 0.545948
0.537849 0.676321 0.503298
0.701385 0.560658 0.440138
0.835055 0.417997 0.357717
0.930213 0.259113 0.259931
0.983944 0.0935235 0.152009
0.996655 -0.071231 0.0400575
0.970983 -0.228993 -0.0689528
0.911964 -0.374474 -0.167605
0.827298 -0.503457 -0.249215
0.726637 -0.613451 -0.309316
0.619797 -0.7041 -0.346547
0.514829 -0.776912 -0.362434
0.416871 -0.834491 -0.360337
0.328055 -0.87971 -0.344225
0.248095 -0.915144 -0.317742
0.175109 -0.942787 -0.283708
0.106369 -0.963934 -0.243961
0.0389035 -0.97914 -0.199429
-0.0300387 -0.98818 -0.150328
-0.102606 -0.990034 -0.0964605
-0.180007 -0.982948 -0.0375675
-0.262227 -0.964648 0.0262999
-0.347871 -0.932771 0.0944683
-0.434242 -0.885462 0.1655
-0.517734 -0.821971 0.237307
-0.594456 -0.743009 0.307505
-0.66091 -0.650709 0.373866
-0.714491 -0.548238 0.434669
-0.753706 -0.439275 0.48884
-0.77817 -0.327532 0.535887
-0.788476 -0.216428 0.57573
-0.786033 -0.108871 0.608522
-0.772877 -0.00712958 0.634516
-0.751463 0.0872425 0.653981
-0.724443 0.173413 0.667166
-0.694432 0.251207 0.674284
-0.663808 0.320987 0.675519
-0.634555 0.383489 0.671026
-0.608154 0.439665 0.660941
-0.585526 0.490552 0.645382
-0.566996 0.537172 0.624469
-0.55222 0.580519 0.598373
-0.539936 0.62172 0.567391
-0.527391 0.662676 0.531714
-0.509528 0.707411 0.489847
-0.477973 0.76192 0.437057
0.0192567 0.691844 0.72179
-0.0534339 0.822208 0.566673
0.0379359 0.844324 0.534488
0.193738 0.833723 0.51708
0.377325 0.787226 0.487752
0.560658 0.701385 0.440138
0.72249 0.58194 0.373302
0.850346 0.439402 0.289547
0.939241 0.284027 0.192756
0.98846 0.123631 0.087535
0.999134 -0.0360983 -0.0207094
0.973641 -0.190443 -0.125516
0.916272 -0.334905 -0.219739
0.83388 -0.465354 -0.296799
0.73544 -0.578818 -0.352275
0.630366 -0.674169 -0.384884
0.526524 -0.752147 -0.396292
0.428972 -0.814784 -0.390014
0.339773 -0.864617 -0.370125
0.25855 -0.904076 -0.340291
0.183322 -0.93511 -0.303252
0.111276 -0.958989 -0.260687
0.0394078 -0.97619 -0.213305
-0.0349763 -0.986317 -0.161105
-0.113824 -0.988072 -0.103716
-0.197951 -0.979362 -0.0408188
-0.286731 -0.957618 0.0274347
-0.377989 -0.920382 0.100109
-0.468222 -0.866025 0.175408
-0.553181 -0.794377 0.250913
-0.628657 -0.706955 0.324043
-0.691216 -0.606734 0.392548
-0.738626 -0.497581 0.454802
-0.76997 -0.383653 0.509859
-0.785547 -0.268913 0.557317
-0.786667 -0.156813 0.597131
-0.775427 -0.0500987 0.629447
-0.754456 0.0492906 0.654497
-0.726652 0.140243 0.672539
-0.694912 0.222407 0.683836
-0.661907 0.296049 0.688647
-0.629894 0.361874 0.687227
-0.600597 0.42084 0.679836
-0.575144 0.474004 0.666731
-0.554045 0.5224 0.648176
-0.537172 0.566996 0.624469
-0.523646 0.608751 0.596001
-0.511449 0.648985 0.563239
-0.496672 0.690457 0.525914
-0.472509 0.738749 0.48061
-0.430139 0.794126 0.429354
-0.133546 0.795453 0.591118
-0.108786 0.86213 0.49487
0.022847 0.8789 0.476459
0.201714 0.86602 0.457517
0.396877 0.81387 0.424386
0.58194 0.72249 0.373302
0.739041 0.60079 0.304745
0.859825 0.46007 0.221443
0.942398 0.309487 0.126899
0.987584 0.155075 0.0250773
0.996862 0.000832571 -0.0791551
0.972251 -0.149804 -0.179683
0.91731 -0.293069 -0.269542
0.838033 -0.424953 -0.342221
0.742626 -0.542037 -0.393321
0.639973 -0.642406 -0.421603
0.537659 -0.725974 -0.428818
0.440625 -0.794123 -0.418591
0.350877 -0.849 -0.395076
0.267995 -0.892849 -0.361939
0.189947 -0.927549 -0.321827
0.113891 -0.954318 -0.276237
0.0368446 -0.973511 -0.225651
-0.0437487 -0.984499 -0.169844
-0.129524 -0.985644 -0.108301
-0.220749 -0.974481 -0.0407103
-0.316022 -0.948192 0.0325763
-0.412264 -0.904368 0.11026
-0.50514 -0.841834 0.190128
-0.589866 -0.761225 0.269434
-0.662128 -0.665016 0.345458
-0.71879 -0.557051 0.415974
-0.758211 -0.441844 0.479468
-0.780223 -0.323924 0.535094
-0.785931 -0.207369 0.582504
-0.777438 -0.0955097 0.621665
-0.757537 0.00922774 0.652728
-0.729383 0.105369 0.675942
-0.696187 0.192324 0.691617
-0.660938 0.270228 0.700099
-0.626191 0.339738 0.701757
-0.593939 0.401811 0.696983
-0.565531 0.457525 0.686182
-0.541665 0.507945 0.669769
-0.5224 0.554045 0.648176
-0.507132 0.596713 0.621893
-0.494387 0.636938 0.591516
-0.481234 0.676499 0.557461
-0.462388 0.719475 0.518222
-0.429167 0.772198 0.468535
-0.158281 0.7257 0.669557
-0.233609 0.852248 0.468082
-0.140999 0.892329 0.428799
0.0201262 0.909704 0.414769
0.216385 0.89339 0.39374
0.417997 0.835055 0.357717
0.60079 0.739041 0.304745
0.750936 0.616702 0.236163
0.863946 0.479256 0.154631
0.940313 0.334405 0.0631225
0.981838 0.186481 -0.0349223
0.990116 0.0380097 -0.135002
0.966811 -0.108681 -0.231225
0.914824 -0.250513 -0.316766
0.839313 -0.383639 -0.385194
0.747638 -0.504272 -0.432142
0.648014 -0.609746 -0.456386
0.547624 -0.699122 -0.459714
0.451229 -0.773076 -0.445809
0.360785 -0.8333 -0.418861
0.275863 -0.881809 -0.382509
0.194433 -0.920374 -0.339276
0.113675 -0.950113 -0.290454
0.0307033 -0.971201 -0.236277
-0.056804 -0.982696 -0.176301
-0.150023 -0.982554 -0.109915
-0.248496 -0.967929 -0.0369107
-0.349872 -0.935854 0.0420422
-0.450073 -0.884174 0.125181
-0.543983 -0.812435 0.20984
-0.62647 -0.722286 0.292982
-0.693378 -0.617247 0.371797
-0.742123 -0.502009 0.444117
-0.771861 -0.381626 0.50852
-0.783329 -0.260864 0.564221
-0.778546 -0.143753 0.610901
-0.760437 -0.0333281 0.648556
-0.732435 0.0684598 0.677386
-0.698096 0.160699 0.697737
-0.660769 0.243343 0.710048
-0.623345 0.316967 0.714824
-0.588104 0.38252 0.712609
-0.556639 0.441103 0.703976
-0.529842 0.493817 0.689501
-0.507945 0.541665 0.669769
-0.490552 0.585526 0.645382