# vtk DataFile Version 2.0
tmp/0.000.00-10.000.000.001.0084.vtk
ASCII
DATASET UNSTRUCTURED_GRID
POINTS 5101 float
0 0 0
1 0 0
2 0 0
3 0 0
4 0 0
5 0 0
6 0 0
7 0 0
8 0 0
9 0 0
10 0 0
11 0 0
12 0 0
13 0 0
14 0 0
15 0 0
16 0 0
17 0 0
18 0 0
19 0 0
20 0 0
21 0 0
22 0 0
23 0 0
24 0 0
25 0 0
26 0 0
27 0 0
28 0 0
29 0 0
30 0 0
31 0 0
32 0 0
33 0 0
34 0 0
35 0 0
36 0 0
37 0 0
38 0 0
39 0 0
40 0 0
41 0 0
42 0 0
43 0 0
44 0 0
45 0 0
46 0 0
47 0 0
48 0 0
49 0 0
50 0 0
0.5 0.5 0
1.5 0.5 0
2.5 0.5 0
3.5 0.5 0
4.5 0.5 0
5.5 0.5 0
6.5 0.5 0
7.5 0.5 0
8.5 0.5 0
9.5 0.5 0
10.5 0.5 0
11.5 0.5 0
12.5 0.5 0
13.5 0.5 0
14.5 0.5 0
15.5 0.5 0
16.5 0.5 0
17.5 0.5 0
18.5 0.5 0
19.5 0.5 0
20.5 0.5 0
21.5 0.5 0
22.5 0.5 0
23.5 0.5 0
24.5 0.5 0
25.5 0.5 0
26.5 0.5 0
27.5 0.5 0
28.5 0.5 0
29.5 0.5 0
30.5 0.5 0
31.5 0.5 0
32.5 0.5 0
33.5 0.5 0
34.5 0.5 0
35.5 0.5 0
36.5 0.5 0
37.5 0.5 0
38.5 0.5 0
39.5 0.5 0
40.5 0.5 0
41.5 0.5 0
42.5 0.5 0
43.5 0.5 0
44.5 0.5 0
45.5 0.5 0
46.5 0.5 0
47.5 0.5 0
48.5 0.5 0
49.5 0.5 0
0 1 0
1 1 0
2 1 0
3 1 0
4 1 0
5 1 0
6 1 0
7 1 0
8 1 0
9 1 0
10 1 0
11 1 0
12 1 0
13 1 0
14 1 0
15 1 0
16 1 0
17 1 0
18 1 0
19 1 0
20 1 0
21 1 0
22 1 0
23 1 0
24 1 0
25 1 0
26 1 0
27 1 0
28 1 0
29 1 0
30 1 0
31 1 0
32 1 0
33 1 0
34 1 0
35 1 0
36 1 0
37 1 0
38 1 0
39 1 0
40 1 0
41 1 0
42 1 0
43 1 0
44 1 0
45 1 0
46 1 0
47 1 0
48 1 0
49 1 0
50 1 0
0.5 1.5 0
1.5 1.5 0
2.5 1.5 0
3.5 1.5 0
4.5 1.5 0
5.5 1.5 0
6.5 1.5 0
7.5 1.5 0
8.5 1.5 0
9.5 1.5 0
10.5 1.5 0
11.5 1.5 0
12.5 1.5 0
13.5 1.5 0
14.5 1.5 0
15.5 1.5 0
16.5 1.5 0
17.5 1.5 0
18.5 1.5 0
19.5 1.5 0
20.5 1.5 0
21.5 1.5 0
22.5 1.5 0
23.5 1.5 0
24.5 1.5 0
25.5 1.5 0
26.5 1.5 0
27.5 1.5 0
28.5 1.5 0
29.5 1.5 0
30.5 1.5 0
31.5 1.5 0
32.5 1.5 0
33.5 1.5 0
34.5 1.5 0
35.5 1.5 0
36.5 1.5 0
37.5 1.5 0
38.5 1.5 0
39.5 1.5 0
40.5 1.5 0
41.5 1.5 0
42.5 1.5 0
43.5 1.5 0
44.5 1.5 0
45.5 1.5 0
46.5 1.5 0
47.5 1.5 0
48.5 1.5 0
49.5 1.5 0
0 2 0
1 2 0
2 2 0
3 2 0
4 2 0
5 2 0
6 2 0
7 2 0
8 2 0
9 2 0
10 2 0
11 2 0
12 2 0
13 2 0
14 2 0
15 2 0
16 2 0
17 2 0
18 2 0
19 2 0
20 2 0
21 2 0
22 2 0
23 2 0
24 2 0
25 2 0
26 2 0
27 2 0
28 2 0
29 2 0
30 2 0
31 2 0
32 2 0
33 2 0
34 2 0
35 2 0
36 2 0
37 2 0
38 2 0
39 2 0
40 2 0
41 2 0
42 2 0
43 2 0
44 2 0
45 2 0
46 2 0
47 2 0
48 2 0
49 2 0
50 2 0
0.5 2.5 0
1.5 2.5 0
2.5 2.5 0
3.5 2.5 0
4.5 2.5 0
5.5 2.5 0
6.5 2.5 0
7.5 2.5 0
8.5 2.5 0
9.5 2.5 0
10.5 2.5 0
11.5 2.5 0
12.5 2.5 0
13.5 2.5 0
14.5 2.5 0
15.5 2.5 0
16.5 2.5 0
17.5 2.5 0
18.5 2.5 0
19.5 2.5 0
20.5 2.5 0
21.5 2.5 0
22.5 2.5 0
23.5 2.5 0
24.5 2.5 0
25.5 2.5 0
26.5 2.5 0
27.5 2.5 0
28.5 2.5 0
29.5 2.5 0
30.5 2.5 0
31.5 2.5 0
32.5 2.5 0
33.5 2.5 0
34.5 2.5 0
35.5 2.5 0
36.5 2.5 0
37.5 2.5 0
38.5 2.5 0
39.5 2.5 0
40.5 2.5 0
41.5 2.5 0
42.5 2.5 0
43.5 2.5 0
44.5 2.5 0
45.5 2.5 0
46.5 2.5 0
47.5 2.5 0
48.5 2.5 0
49.5 2.5 0
0 3 0
1 3 0
2 3 0
3 3 0
4 3 0
5 3 0
6 3 0
7 3 0
8 3 0
9 3 0
10 3 0
11 3 0
12 3 0
13 3 0
14 3 0
15 3 0
16 3 0
17 3 0
18 3 0
19 3 0
20 3 0
21 3 0
22 3 0
23 3 0
24 3 0
25 3 0
26 3 0
27 3 0
28 3 0
29 3 0
30 3 0
31 3 0
32 3 0
33 3 0
34 3 0
35 3 0
36 3 0
37 3 0
38 3 0
39 3 0
40 3 0
41 3 0
42 3 0
43 3 0
44 3 0
45 3 0
46 3 0
47 3 0
48 3 0
49 3 0
50 3 0
0.5 3.5 0
1.5 3.5 0
2.5 3.5 0
3.5 3.5 0
4.5 3.5 0
5.5 3.5 0
6.5 3.5 0
7.5 3.5 0
8.5 3.5 0
9.5 3.5 0
10.5 3.5 0
11.5 3.5 0
12.5 3.5 0
13.5 3.5 0
14.5 3.5 0
15.5 3.5 0
16.5 3.5 0
17.5 3.5 0
18.5 3.5 0
19.5 3.5 0
20.5 3.5 0
21.5 3.5 0
22.5 3.5 0
23.5 3.5 0
24.5 3.5 0
25.5 3.5 0
26.5 3.5 0
27.5 3.5 0
28.5 3.5 0
29.5 3.5 0
30.5 3.5 0
31.5 3.5 0
32.5 3.5 0
33.5 3.5 0
34.5 3.5 0
35.5 3.5 0
36.5 3.5 0
37.5 3.5 0
38.5 3.5 0
39.5 3.5 0
40.5 3.5 0
41.5 3.5 0
42.5 3.5 0
43.5 3.5 0
44.5 3.5 0
45.5 3.5 0
46.5 3.5 0
47.5 3.5 0
48.5 3.5 0
49.5 3.5 0
0 4 0
1 4 0
2 4 0
3 4 0
4 4 0
5 4 0
6 4 0
7 4 0
8 4 0
9 4 0
10 4 0
11 4 0
12 4 0
13 4 0
14 4 0
15 4 0
16 4 0
17 4 0
18 4 0
19 4 0
20 4 0
21 4 0
22 4 0
23 4 0
24 4 0
25 4 0
26 4 0
27 4 0
28 4 0
29 4 0
30 4 0
31 4 0
32 4 0
33 4 0
34 4 0
35 4 0
36 4 0
37 4 0
38 4 0
39 4 0
40 4 0
41 4 0
42 4 0
43 4 0
44 4 0
45 4 0
46 4 0
47 4 0
48 4 0
49 4 0
50 4 0
0.5 4.5 0
1.5 4.5 0
2.5 4.5 0
3.5 4.5 0
4.5 4.5 0
5.5 4.5 0
6.5 4.5 0
7.5 4.5 0
8.5 4.5 0
9.5 4.5 0
10.5 4.5 0
11.5 4.5 0
12.5 4.5 0
13.5 4.5 0
14.5 4.5 0
15.5 4.5 0
16.5 4.5 0
17.5 4.5 0
18.5 4.5 0
19.5 4.5 0
20.5 4.5 0
21.5 4.5 0
22.5 4.5 0
23.5 4.5 0
24.5 4.5 0
25.5 4.5 0
26.5 4.5 0
27.5 4.5 0
28.5 4.5 0
29.5 4.5 0
30.5 4.5 0
31.5 4.5 0
32.5 4.5 0
33.5 4.5 0
34.5 4.5 0
35.5 4.5 0
36.5 4.5 0
37.5 4.5 0
38.5 4.5 0
39.5 4.5 0
40.5 4.5 0
41.5 4.5 0
42.5 4.5 0
43.5 4.5 0
44.5 4.5 0
45.5 4.5 0
46.5 4.5 0
47.5 4.5 0
48.5 4.5 0
49.5 4.5 0
0 5 0
1 5 0
2 5 0
3 5 0
4 5 0
5 5 0
6 5 0
7 5 0
8 5 0
9 5 0
10 5 0
11 5 0
12 5 0
13 5 0
14 5 0
15 5 0
16 5 0
17 5 0
18 5 0
19 5 0
20 5 0
21 5 0
22 5 0
23 5 0
24 5 0
25 5 0
26 5 0
27 5 0
28 5 0
29 5 0
30 5 0
31 5 0
32 5 0
33 5 0
34 5 0
35 5 0
36 5 0
37 5 0
38 5 0
39 5 0
40 5 0
41 5 0
42 5 0
43 5 0
44 5 0
45 5 0
46 5 0
47 5 0
48 5 0
49 5 0
50 5 0
0.5 5.5 0
1.5 5.5 0
2.5 5.5 0
3.5 5.5 0
4.5 5.5 0
5.5 5.5 0
6.5 5.5 0
7.5 5.5 0
8.5 5.5 0
9.5 5.5 0
10.5 5.5 0
11.5 5.5 0
12.5 5.5 0
13.5 5.5 0
14.5 5.5 0
15.5 5.5 0
16.5 5.5 0
17.5 5.5 0
18.5 5.5 0
19.5 5.5 0
20.5 5.5 0
21.5 5.5 0
22.5 5.5 0
23.5 5.5 0
24.5 5.5 0
25.5 5.5 0
26.5 5.5 0
27.5 5.5 0
28.5 5.5 0
29.5 5.5 0
30.5 5.5 0
31.5 5.5 0
32.5 5.5 0
33.5 5.5 0
34.5 5.5 0
35.5 5.5 0
36.5 5.5 0
37.5 5.5 0
38.5 5.5 0
39.5 5.5 0
40.5 5.5 0
41.5 5.5 0
42.5 5.5 0
43.5 5.5 0
44.5 5.5 0
45.5 5.5 0
46.5 5.5 0
47.5 5.5 0
48.5 5.5 0
49.5 5.5 0
0 6 0
1 6 0
2 6 0
3 6 0
4 6 0
5 6 0
6 6 0
7 6 0
8 6 0
9 6 0
10 6 0
11 6 0
12 6 0
13 6 0
14 6 0
15 6 0
16 6 0
17 6 0
18 6 0
19 6 0
20 6 0
21 6 0
22 6 0
23 6 0
24 6 0
25 6 0
26 6 0
27 6 0
28 6 0
29 6 0
30 6 0
31 6 0
32 6 0
33 6 0
34 6 0
35 6 0
36 6 0
37 6 0
38 6 0
39 6 0
40 6 0
41 6 0
42 6 0
43 6 0
44 6 0
45 6 0
46 6 0
47 6 0
48 6 0
49 6 0
50 6 0
0.5 6.5 0
1.5 6.5 0
2.5 6.5 0
3.5 6.5 0
4.5 6.5 0
5.5 6.5 0
6.5 6.5 0
7.5 6.5 0
8.5 6.5 0
9.5 6.5 0
10.5 6.5 0
11.5 6.5 0
12.5 6.5 0
13.5 6.5 0
14.5 6.5 0
15.5 6.5 0
16.5 6.5 0
17.5 6.5 0
18.5 6.5 0
19.5 6.5 0
20.5 6.5 0
21.5 6.5 0
22.5 6.5 0
23.5 6.5 0
24.5 6.5 0
25.5 6.5 0
26.5 6.5 0
27.5 6.5 0
28.5 6.5 0
29.5 6.5 0
30.5 6.5 0
31.5 6.5 0
32.5 6.5 0
33.5 6.5 0
34.5 6.5 0
35.5 6.5 0
36.5 6.5 0
37.5 6.5 0
38.5 6.5 0
39.5 6.5 0
40.5 6.5 0
41.5 6.5 0
42.5 6.5 0
43.5 6.5 0
44.5 6.5 0
45.5 6.5 0
46.5 6.5 0
47.5 6.5 0
48.5 6.5 0
49.5 6.5 0
0 7 0
1 7 0
2 7 0
3 7 0
4 7 0
5 7 0
6 7 0
7 7 0
8 7 0
9 7 0
10 7 0
11 7 0
12 7 0
13 7 0
14 7 0
15 7 0
16 7 0
17 7 0
18 7 0
19 7 0
20 7 0
21 7 0
22 7 0
23 7 0
24 7 0
25 7 0
26 7 0
27 7 0
28 7 0
29 7 0
30 7 0
31 7 0
32 7 0
33 7 0
34 7 0
35 7 0
36 7 0
37 7 0
38 7 0
39 7 0
40 7 0
41 7 0
42 7 0
43 7 0
44 7 0
45 7 0
46 7 0
47 7 0
48 7 0
49 7 0
50 7 0
0.5 7.5 0
1.5 7.5 0
2.5 7.5 0
3.5 7.5 0
4.5 7.5 0
5.5 7.5 0
6.5 7.5 0
7.5 7.5 0
8.5 7.5 0
9.5 7.5 0
10.5 7.5 0
11.5 7.5 0
12.5 7.5 0
13.5 7.5 0
14.5 7.5 0
15.5 7.5 0
16.5 7.5 0
17.5 7.5 0
18.5 7.5 0
19.5 7.5 0
20.5 7.5 0
21.5 7.5 0
22.5 7.5 0
23.5 7.5 0
24.5 7.5 0
25.5 7.5 0
26.5 7.5 0
27.5 7.5 0
28.5 7.5 0
29.5 7.5 0
30.5 7.5 0
31.5 7.5 0
32.5 7.5 0
33.5 7.5 0
34.5 7.5 0
35.5 7.5 0
36.5 7.5 0
37.5 7.5 0
38.5 7.5 0
39.5 7.5 0
40.5 7.5 0
41.5 7.5 0
42.5 7.5 0
43.5 7.5 0
44.5 7.5 0
45.5 7.5 0
46.5 7.5 0
47.5 7.5 0
48.5 7.5 0
49.5 7.5 0
0 8 0
1 8 0
2 8 0
3 8 0
4 8 0
5 8 0
6 8 0
7 8 0
8 8 0
9 8 0
10 8 0
11 8 0
12 8 0
13 8 0
14 8 0
15 8 0
16 8 0
17 8 0
18 8 0
19 8 0
20 8 0
21 8 0
22 8 0
23 8 0
24 8 0
25 8 0
26 8 0
27 8 0
28 8 0
29 8 0
30 8 0
31 8 0
32 8 0
33 8 0
34 8 0
35 8 0
36 8 0
37 8 0
38 8 0
39 8 0
40 8 0
41 8 0
42 8 0
43 8 0
44 8 0
45 8 0
46 8 0
47 8 0
48 8 0
49 8 0
50 8 0
0.5 8.5 0
1.5 8.5 0
2.5 8.5 0
3.5 8.5 0
4.5 8.5 0
5.5 8.5 0
6.5 8.5 0
7.5 8.5 0
8.5 8.5 0
9.5 8.5 0
10.5 8.5 0
11.5 8.5 0
12.5 8.5 0
13.5 8.5 0
14.5 8.5 0
15.5 8.5 0
16.5 8.5 0
17.5 8.5 0
18.5 8.5 0
19.5 8.5 0
20.5 8.5 0
21.5 8.5 0
22.5 8.5 0
23.5 8.5 0
24.5 8.5 0
25.5 8.5 0
26.5 8.5 0
27.5 8.5 0
28.5 8.5 0
29.5 8.5 0
30.5 8.5 0
31.5 8.5 0
32.5 8.5 0
33.5 8.5 0
34.5 8.5 0
35.5 8.5 0
36.5 8.5 0
37.5 8.5 0
38.5 8.5 0
39.5 8.5 0
40.5 8.5 0
41.5 8.5 0
42.5 8.5 0
43.5 8.5 0
44.5 8.5 0
45.5 8.5 0
46.5 8.5 0
47.5 8.5 0
48.5 8.5 0
49.5 8.5 0
0 9 0
1 9 0
2 9 0
3 9 0
4 9 0
5 9 0
6 9 0
7 9 0
8 9 0
9 9 0
10 9 0
11 9 0
12 9 0
13 9 0
14 9 0
15 9 0
16 9 0
17 9 0
18 9 0
19 9 0
20 9 0
21 9 0
22 9 0
23 9 0
24 9 0
25 9 0
26 9 0
27 9 0
28 9 0
29 9 0
30 9 0
31 9 0
32 9 0
33 9 0
34 9 0
35 9 0
36 9 0
37 9 0
38 9 0
39 9 0
40 9 0
41 9 0
42 9 0
43 9 0
44 9 0
45 9 0
46 9 0
47 9 0
48 9 0
49 9 0
50 9 0
0.5 9.5 0
1.5 9.5 0
2.5 9.5 0
3.5 9.5 0
4.5 9.5 0
5.5 9.5 0
6.5 9.5 0
7.5 9.5 0
8.5 9.5 0
9.5 9.5 0
10.5 9.5 0
11.5 9.5 0
12.5 9.5 0
13.5 9.5 0
14.5 9.5 0
15.5 9.5 0
16.5 9.5 0
17.5 9.5 0
18.5 9.5 0
19.5 9.5 0
20.5 9.5 0
21.5 9.5 0
22.5 9.5 0
23.5 9.5 0
24.5 9.5 0
25.5 9.5 0
26.5 9.5 0
27.5 9.5 0
28.5 9.5 0
29.5 9.5 0
30.5 9.5 0
31.5 9.5 0
32.5 9.5 0
33.5 9.5 0
34.5 9.5 0
35.5 9.5 0
36.5 9.5 0
37.5 9.5 0
38.5 9.5 0
39.5 9.5 0
40.5 9.5 0
41.5 9.5 0
42.5 9.5 0
43.5 9.5 0
44.5 9.5 0
45.5 9.5 0
46.5 9.5 0
47.5 9.5 0
48.5 9.5 0
49.5 9.5 0
0 10 0
1 10 0
2 10 0
3 10 0
4 10 0
5 10 0
6 10 0
7 10 0
8 10 0
9 10 0
10 10 0
11 10 0
12 10 0
13 10 0
14 10 0
15 10 0
16 10 0
17 10 0
18 10 0
19 10 0
20 10 0
21 10 0
22 10 0
23 10 0
24 10 0
25 10 0
26 10 0
27 10 0
28 10 0
29 10 0
30 10 0
31 10 0
32 10 0
33 10 0
34 10 0
35 10 0
36 10 0
37 10 0
38 10 0
39 10 0
40 10 0
41 10 0
42 10 0
43 10 0
44 10 0
45 10 0
46 10 0
47 10 0
48 10 0
49 10 0
50 10 0
0.5 10.5 0
1.5 10.5 0
2.5 10.5 0
3.5 10.5 0
4.5 10.5 0
5.5 10.5 0
6.5 10.5 0
7.5 10.5 0
8.5 10.5 0
9.5 10.5 0
10.5 10.5 0
11.5 10.5 0
12.5 10.5 0
13.5 10.5 0
14.5 10.5 0
15.5 10.5 0
16.5 10.5 0
17.5 10.5 0
18.5 10.5 0
19.5 10.5 0
20.5 10.5 0
21.5 10.5 0
22.5 10.5 0
23.5 10.5 0
24.5 10.5 0
25.5 10.5 0
26.5 10.5 0
27.5 10.5 0
28.5 10.5 0
29.5 10.5 0
30.5 10.5 0
31.5 10.5 0
32.5 10.5 0
33.5 10.5 0
34.5 10.5 0
35.5 10.5 0
36.5 10.5 0
37.5 10.5 0
38.5 10.5 0
39.5 10.5 0
40.5 10.5 0
41.5 10.5 0
42.5 10.5 0
43.5 10.5 0
44.5 10.5 0
45.5 10.5 0
46.5 10.5 0
47.5 10.5 0
48.5 10.5 0
49.5 10.5 0
0 11 0
1 11 0
2 11 0
3 11 0
[...]
POINT_DATA 5101
VECTORS velocity float
0.547533 0.547533 0.632784
0.551512 0.453075 0.700399
0.485013 0.337582 0.806722
0.469156 0.225851 0.853747
0.497546 0.083755 0.863385
0.542494 -0.0916159 0.835049
0.577451 -0.281064 0.76652
0.587272 -0.459605 0.666239
0.570082 -0.610802 0.549479
0.531405 -0.729935 0.429889
0.478019 -0.819536 0.316004
0.415102 -0.884713 0.212068
0.345673 -0.930668 0.119864
0.270945 -0.961757 0.0401528
0.190986 -0.981236 -0.0264424
0.105507 -0.991278 -0.0789652
0.0146548 -0.993135 -0.116056
-0.0803583 -0.987409 -0.136258
-0.177035 -0.974397 -0.138597
-0.271918 -0.954402 -0.123193
-0.361351 -0.927921 -0.0915848
-0.44233 -0.895641 -0.0466028
-0.513069 -0.858309 0.00812173
-0.573127 -0.816577 0.0687619
-0.623165 -0.770909 0.131775
-0.664554 -0.721574 0.194162
-0.698981 -0.668692 0.253528
-0.728148 -0.612304 0.308033
-0.753563 -0.552448 0.356292
-0.776423 -0.489218 0.397282
-0.797549 -0.422821 0.430277
-0.817369 -0.353612 0.454826
-0.835943 -0.282129 0.470746
-0.853027 -0.209095 0.478147
-0.868167 -0.135408 0.477443
-0.88083 -0.0620949 0.469344
-0.89053 0.00975507 0.45482
-0.896941 0.0790777 0.435021
-0.899966 0.144927 0.411166
-0.899751 0.206563 0.384421
-0.896649 0.263525 0.355773
-0.891137 0.315677 0.325918
-0.883704 0.363237 0.295172
-0.874725 0.406784 0.263407
-0.864336 0.447235 0.230008
-0.852304 0.485813 0.193816
-0.837882 0.523959 0.153037
-0.81963 0.563199 0.104948
-0.795035 0.604897 0.0449263
-0.759061 0.650001 -0.0364066
-0.698655 0.698655 -0.154147
0.479323 0.479323 0.735186
0.447949 0.349509 0.822913
0.470893 0.227934 0.852236
0.53261 0.0861351 0.841966
0.604549 -0.0845935 0.792063
0.658084 -0.270307 0.702751
0.67648 -0.447948 0.584566
0.658197 -0.600414 0.454181
0.610769 -0.721553 0.32607
0.543678 -0.812793 0.209241
0.464944 -0.878704 0.108196
0.380422 -0.924483 0.0246892
0.294014 -0.954917 -0.0410911
0.208008 -0.973993 -0.089838
0.123417 -0.984743 -0.122678
0.0403656 -0.98921 -0.140834
-0.0414729 -0.988504 -0.145398
-0.122429 -0.98294 -0.137259
-0.202454 -0.972254 -0.117197
-0.280912 -0.955863 -0.0861008
-0.356605 -0.933161 -0.0452078
-0.428034 -0.903755 0.00374905
-0.493787 -0.867609 0.0585684
-0.552887 -0.825034 0.116768
-0.604982 -0.776579 0.175844
-0.650328 -0.722877 0.2335
-0.689631 -0.664521 0.287786
-0.723824 -0.602014 0.337133
-0.753856 -0.535765 0.380339
-0.780524 -0.466148 0.41652
-0.804368 -0.393567 0.445081
-0.825631 -0.318526 0.465698
-0.844273 -0.241682 0.478324
-0.860039 -0.163867 0.483199
-0.87257 -0.0860809 0.480845
-0.881525 -0.00943508 0.472043
-0.886698 0.0649242 0.457768
-0.888097 0.135918 0.439102
-0.885974 0.202635 0.417121
-0.880796 0.264423 0.392783
-0.873177 0.320954 0.366811
-0.863766 0.372257 0.339608
-0.853129 0.418734 0.311179
-0.841628 0.461147 0.281079
-0.829293 0.500585 0.248369
-0.815699 0.53841 0.211542
-0.799798 0.576181 0.168339
-0.779605 0.615589 0.115178
-0.751265 0.658421 0.0456308
-0.706343 0.706343 -0.0464656
0.453075 0.551512 0.700399
0.394523 0.394523 0.829881
0.430774 0.281991 0.857272
0.511199 0.150046 0.846264
0.606301 -0.00916895 0.795183
0.685129 -0.187759 0.703808
0.726514 -0.366128 0.581488
0.724991 -0.526105 0.444524
0.686591 -0.658436 0.30831
0.621361 -0.761791 0.18326
0.538897 -0.83901 0.0751835
0.447022 -0.894426 -0.0131334
0.351747 -0.9326 -0.0808176
0.257416 -0.95774 -0.12834
0.166825 -0.973385 -0.157135
0.0813579 -0.982213 -0.16923
0.00122859 -0.985979 -0.166864
-0.0741779 -0.985567 -0.152168
-0.145898 -0.981117 -0.126979
-0.214984 -0.972197 -0.0928117
-0.282171 -0.95801 -0.0509592
-0.347676 -0.937611 -0.00268027
-0.41117 -0.910152 0.0506199
-0.471932 -0.875083 0.107289
-0.529096 -0.832276 0.165448
-0.581926 -0.782034 0.223123
-0.629988 -0.724985 0.27841
-0.673197 -0.661928 0.32963
-0.711744 -0.593705 0.375414
-0.745953 -0.521109 0.414728
-0.776136 -0.444886 0.446867
-0.802476 -0.365765 0.471431
-0.824982 -0.28453 0.48831
-0.843498 -0.202069 0.497674
-0.857779 -0.119407 0.499957
-0.8676 -0.0376897 0.495833
-0.872867 0.0418717 0.486158
-0.873706 0.118092 0.471902
-0.870499 0.189919 0.454052
-0.863863 0.256537 0.433508
-0.854587 0.317449 0.410984
-0.843517 0.372525 0.386915
-0.831442 0.422025 0.361384
-0.818962 0.466587 0.334063
-0.806366 0.507205 0.304167
-0.793511 0.545184 0.270398
-0.779666 0.582096 0.230835
-0.763224 0.61979 0.182618
-0.740989 0.660469 0.121312
-0.706452 0.706452 0.0430233
-0.650001 0.759061 -0.0364066
0.349509 0.447949 0.822913
0.361176 0.361176 0.859712
0.444423 0.250641 0.860039
0.555069 0.10859 0.824686
0.661284 -0.0604295 0.747698
0.735123 -0.240465 0.633855
0.763434 -0.411644 0.497712
0.747872 -0.560318 0.355993
0.697594 -0.681418 0.22143
0.62303 -0.775548 0.101779
0.533365 -0.845884 0.00126488
0.436126 -0.896488 -0.0781225
0.337254 -0.931539 -0.135994
0.241115 -0.954907 -0.173253
0.150474 -0.969835 -0.191778
0.0665742 -0.978736 -0.194018
-0.0106249 -0.983137 -0.182562
-0.0820912 -0.98373 -0.159799
-0.149293 -0.98051 -0.127716
-0.213775 -0.972923 -0.0878715
-0.276789 -0.960034 -0.0415073
-0.339038 -0.940717 0.0102479
-0.400568 -0.913875 0.0661642
-0.460845 -0.878667 0.124762
-0.51896 -0.834697 0.184289
-0.573911 -0.782089 0.242823
-0.624855 -0.721444 0.298454
-0.671233 -0.653691 0.349477
-0.712777 -0.579917 0.39452
-0.749411 -0.501234 0.432606
-0.781125 -0.418725 0.463155
-0.807871 -0.333452 0.485957
-0.829522 -0.246501 0.50113
-0.845903 -0.159033 0.509075
-0.856875 -0.0722954 0.51043
-0.862441 0.0124008 0.506005
-0.862837 0.0937555 0.496712
-0.858574 0.170583 0.483479
-0.850428 0.241923 0.467168
-0.839366 0.307135 0.448479
-0.826436 0.365962 0.427873
-0.812639 0.418555 0.405498
-0.798794 0.465468 0.38114
-0.785415 0.507627 0.354171
-0.772594 0.546292 0.323516
-0.759865 0.583014 0.287576
-0.745971 0.619644 0.244068
-0.728321 0.658426 0.189797
-0.701822 0.701822 0.122028
-0.658421 0.751265 0.0456308
0.337582 0.485013 0.806722
0.281991 0.430774 0.857272
0.354404 0.354404 0.86533
0.471943 0.238636 0.848718
0.601589 0.0873357 0.794017
0.710765 -0.0877646 0.697933
0.776766 -0.266927 0.570424
0.79369 -0.432038 0.428252
0.767716 -0.573117 0.286618
0.709266 -0.687523 0.155735
0.62855 -0.776656 0.0416038
0.534358 -0.843631 -0.0524231
0.434042 -0.892209 -0.124783
0.333502 -0.926287 -0.175409
0.237043 -0.949507 -0.205542
0.147263 -0.964913 -0.217386
0.0651226 -0.97474 -0.213639
-0.00976863 -0.980349 -0.197029
-0.0787518 -0.9823 -0.169957
-0.143657 -0.980469 -0.134328
-0.206355 -0.974185 -0.0915443
-0.268368 -0.962371 -0.0426607
-0.330584 -0.943708 0.0113758
-0.39312 -0.916859 0.069467
-0.455364 -0.880737 0.13018
-0.516191 -0.834742 0.191708
-0.574274 -0.778914 0.251997
-0.628385 -0.71391 0.308974
-0.677588 -0.640855 0.360804
-0.721281 -0.56113 0.406063
-0.759118 -0.476188 0.44383
-0.790889 -0.387464 0.473674
-0.816427 -0.296356 0.495601
-0.835588 -0.20426 0.509971
-0.848298 -0.112601 0.517409
-0.854642 -0.022836 0.518715
-0.854959 0.0635979 0.514781
-0.849889 0.145375 0.506512
-0.840367 0.221393 0.494741
-0.827546 0.290883 0.48016
-0.812684 0.353478 0.463247
-0.796995 0.409243 0.444206
-0.781513 0.458671 0.422918
-0.766958 0.502645 0.398903
-0.753628 0.542392 0.37129
-0.741276 0.579432 0.338775
-0.728937 0.615569 0.299542
-0.714536 0.652948 0.251192
-0.694019 0.694019 0.191505
-0.660469 0.740989 0.121312
-0.604897 0.795035 0.0449263
0.227934 0.470893 0.852236
0.250641 0.444423 0.860039
0.363924 0.363924 0.857391
0.508363 0.240748 0.826805
0.650019 0.0815456 0.75553
0.757784 -0.0970928 0.645242
0.815384 -0.274313 0.509806
0.822915 -0.434588 0.365984
0.789202 -0.570756 0.226711
0.724902 -0.681537 0.100122
0.639764 -0.76852 -0.00888438
0.54227 -0.834541 -0.097383
0.439716 -0.883036 -0.164005
0.338036 -0.917658 -0.208894
0.241491 -0.941879 -0.233552
0.152492 -0.958611 -0.240439
0.0716955 -0.969969 -0.232423
-0.00165423 -0.977208 -0.212279
-0.0692662 -0.980793 -0.182338
-0.133303 -0.980508 -0.144339
-0.195901 -0.975566 -0.0994637
-0.25876 -0.964721 -0.0485406
-0.322822 -0.946429 0.00766271
-0.388118 -0.919088 0.0681289
-0.453804 -0.881364 0.131375
-0.518403 -0.832507 0.195423
-0.580177 -0.772558 0.257971
-0.637497 -0.702347 0.316713
-0.689088 -0.623303 0.369663
-0.73409 -0.537182 0.415387
-0.771982 -0.44583 0.453078
-0.802459 -0.35105 0.482519
-0.825351 -0.254577 0.503971
-0.840623 -0.158102 0.518031
-0.848432 -0.0632877 0.525506
-0.849213 0.0282517 0.527295
-0.843731 0.115028 0.524296
-0.833085 0.195791 0.517334
-0.818626 0.269637 0.507097
-0.801828 0.336095 0.494077
-0.784134 0.395159 0.478521
-0.766799 0.447278 0.460394
-0.750751 0.493307 0.439341
-0.736481 0.534455 0.414673
-0.723934 0.572217 0.38534
-0.712384 0.608342 0.349899
-0.700161 0.644849 0.306503
-0.684043 0.684043 0.253317
-0.658426 0.728321 0.189797
-0.615589 0.779605 0.115178
0.225851 0.469156 0.853747
0.150046 0.511199 0.846264
0.238636 0.471943 0.848718
0.385347 0.385347 0.83846
0.550638 0.254509 0.794998
0.698753 0.0890699 0.709797
0.802406 -0.0911667 0.589774
0.852063 -0.266003 0.450813
0.852278 -0.422666 0.308182
0.813068 -0.556043 0.172443
0.744691 -0.665519 0.0501902
0.656333 -0.752517 -0.054271
0.556245 -0.819461 -0.138114
0.451782 -0.869425 -0.199985
0.349003 -0.90583 -0.240145
0.252185 -0.93201 -0.260306
0.163583 -0.950787 -0.263145
0.0835649 -0.964199 -0.25167
0.0110154 -0.973441 -0.228674
-0.0561431 -0.978918 -0.196386
-0.120401 -0.980336 -0.156348
-0.184146 -0.976781 -0.109495
-0.249202 -0.966807 -0.0564202
-0.316485 -0.948595 0.00226634
-0.38582 -0.920241 0.0655652
-0.455989 -0.880165 0.131846
-0.525036 -0.827526 0.198844
-0.590725 -0.762485 0.263932
-0.65101 -0.686191 0.324543
-0.704314 -0.600509 0.37859
-0.749601 -0.507659 0.424712
-0.786277 -0.409913 0.462319
-0.81406 -0.309452 0.491473
-0.832909 -0.208329 0.512701
-0.843033 -0.108492 0.526806
-0.844958 -0.0117866 0.534703
-0.839575 0.0801018 0.537306
-0.828148 0.165747 0.535443
-0.812234 0.2441 0.529802
-0.793545 0.314581 0.52089
-0.773768 0.377113 0.508988
-0.754397 0.43211 0.494131
-0.736581 0.480418 0.476074
-0.721005 0.523238 0.454283
-0.707797 0.562054 0.427924
-0.696431 0.598569 0.395851
-0.68555 0.634695 0.356628
-0.672562 0.672562 0.308742
-0.652948 0.714536 0.251192
-0.61979 0.763224 0.182618
-0.563199 0.81963 0.104948
0.0861351 0.53261 0.841966
0.10859 0.555069 0.824686
0.240748 0.508363 0.826805
0.415655 0.415655 0.808988
0.59581 0.277741 0.753572
0.745644 0.107913 0.657549
0.843627 -0.0723242 0.532036
0.886417 -0.244555 0.39301
0.881412 -0.398594 0.253446
0.838727 -0.530757 0.121795
0.767815 -0.640661 0.00362582
0.677236 -0.729352 -0.0969373
0.575076 -0.798743 -0.176909
0.468851 -0.851497 -0.234801
0.36485 -0.89078 -0.270915
0.267447 -0.919792 -0.28715
0.178794 -0.941281 -0.286395
0.0989944 -0.957249 -0.271799
0.0265685 -0.968861 -0.246175
-0.0409455 -0.976491 -0.211636
-0.106381 -0.979771 -0.169507
-0.172368 -0.977639 -0.120462
-0.240821 -0.9684 -0.0648539
-0.312539 -0.9499 -0.00317273
-0.387002 -0.919888 0.0635198
-0.462463 -0.876557 0.133329
-0.536345 -0.819075 0.203595
-0.605845 -0.747895 0.271304
-0.668502 -0.664662 0.33366
-0.722519 -0.571815 0.388579
-0.766796 -0.472104 0.434904
-0.800796 -0.368243 0.472358
-0.824399 -0.262762 0.50132
-0.837838 -0.157989 0.522558
-0.841713 -0.0560694 0.537005
-0.837041 0.0410627 0.545597
-0.825254 0.13177 0.549175
-0.808126 0.214832 0.548434
-0.787623 0.28954 0.54389
-0.765705 0.355744 0.535857
-0.744128 0.413826 0.524425
-0.724281 0.464631 0.509446
-0.707059 0.509368 0.490521
-0.692776 0.549521 0.467
-0.681084 0.586768 0.437982
-0.67087 0.622938 0.402345
-0.660006 0.660006 0.358865
-0.644849 0.700161 0.306503
-0.619644 0.745971 0.244068
-0.576181 0.799798 0.168339
0.083755 0.497546 0.863385
-0.00916895 0.606301 0.795183
0.0873357 0.601589 0.794017
0.254509 0.550638 0.794998
0.451957 0.451957 0.769071
0.640846 0.308034 0.703158
0.788498 0.135803 0.599857
0.880183 -0.0429684 0.472685
0.917551 -0.212293 0.336203
0.909373 -0.364269 0.200869
0.865087 -0.496215 0.0734513
0.793075 -0.607739 -0.0410498
0.701216 -0.699393 -0.138369
0.597468 -0.772492 -0.215148
0.489601 -0.829207 -0.269641
0.384242 -0.872393 -0.302139
0.285954 -0.905083 -0.314729
0.196842 -0.929956 -0.31054
0.11675 -0.948992 -0.292887
0.0438184 -0.96336 -0.264609
-0.0248298 -0.973416 -0.227694
-0.0923922 -0.97872 -0.183224
-0.161732 -0.978022 -0.131588
-0.234792 -0.969308 -0.072907
-0.312129 -0.950009 -0.00760345
-0.392706 -0.917498 0.063087
-0.474051 -0.869795 0.136864
-0.552828 -0.806253 0.210566
-0.625627 -0.727842 0.280779
-0.689644 -0.636912 0.344578
-0.742995 -0.53659 0.400037
-0.784677 -0.430182 0.446348
-0.81437 -0.320809 0.483615
-0.832272 -0.211295 0.512521
-0.839042 -0.104172 0.534001
-0.835809 -0.00168407 0.549018
-0.824175 0.0942736 0.558434
-0.806141 0.182269 0.562952
-0.783947 0.261441 0.563095
-0.759851 0.331548 0.559199
-0.735905 0.392936 0.551403
-0.713768 0.446456 0.539641
-0.694569 0.493337 0.523633
-0.678815 0.53508 0.502891
-0.666335 0.573353 0.476723
-0.656215 0.609929 0.444261
-0.646665 0.646665 0.404536
-0.634695 0.68555 0.356628
-0.615569 0.728937 0.299542
-0.582096 0.779666 0.230835
-0.523959 0.837882 0.153037
-0.0845935 0.604549 0.792063
-0.0604295 0.661284 0.747698
0.0815456 0.650019 0.75553
0.277741 0.59581 0.753572
0.491254 0.491254 0.719263
0.682944 0.342783 0.645048
0.825495 0.17026 0.538117
0.910964 -0.00556335 0.412448
0.944485 -0.171412 0.280297
0.935033 -0.321367 0.149791
0.890863 -0.453499 0.0264723
0.819115 -0.567317 -0.0848621
0.726921 -0.662832 -0.179552
0.62212 -0.74068 -0.253694
0.5128 -0.802432 -0.305187
0.406029 -0.850524 -0.33429
0.306641 -0.887757 -0.343306
0.216731 -0.916715 -0.335652
0.13588 -0.939367 -0.314843
0.061813 -0.956905 -0.283745
-0.00879664 -0.969686 -0.244197
-0.0795239 -0.977172 -0.197004
-0.153433 -0.977868 -0.14224
-0.232391 -0.969342 -0.0798166
-0.316537 -0.948525 -0.0101752
-0.404077 -0.912404 0.0651193
-0.491595 -0.85897 0.143198
-0.57488 -0.78802 0.220313
-0.649956 -0.701336 0.292719
-0.713839 -0.602165 0.357535
-0.764766 -0.49438 0.413184
-0.802028 -0.381806 0.45932
-0.825699 -0.267893 0.496442
-0.836456 -0.15567 0.52546
-0.835528 -0.0477671 0.547368
-0.824679 0.0536059 0.563055
-0.806142 0.146762 0.573233
-0.782445 0.230649 0.578429
-0.756176 0.304906 0.578991
-0.729718 0.369835 0.575095
-0.705038 0.426291 0.566742
-0.683529 0.475536 0.553763
-0.665914 0.519098 0.535813
-0.652203 0.558654 0.512383
-0.64166 0.595947 0.482824
-0.632745 0.632745 0.446394
-0.622938 0.67087 0.402345
-0.608342 0.712384 0.349899
-0.583014 0.759865 0.287576
-0.53841 0.815699 0.211542
-0.0916159 0.542494 0.835049
-0.187759 0.685129 0.703808
-0.0877646 0.710765 0.697933
0.0890699 0.698753 0.709797
0.308034 0.640846 0.703158
0.530649 0.530649 0.660926
0.71991 0.379456 0.581156
0.855456 0.208827 0.473905
0.93523 0.0375032 0.352049
0.966377 -0.123981 0.225264
0.957274 -0.271438 0.0997367
0.914722 -0.403597 -0.019807
0.844512 -0.519893 -0.128496
0.752958 -0.619816 -0.221091
0.647743 -0.703257 -0.293015
0.537303 -0.771048 -0.341745
0.429209 -0.825054 -0.367514
0.328623 -0.867733 -0.372889
0.237647 -0.901526 -0.361628
0.155578 -0.928389 -0.337474
0.0796882 -0.949554 -0.303309
0.00617235 -0.965378 -0.260782
-0.0689144 -0.975191 -0.210367
-0.148766 -0.977151 -0.151806
-0.235011 -0.968283 -0.0848447
-0.327109 -0.944933 -0.0100882
-0.422206 -0.903765 0.0703634
-0.515719 -0.843003 0.152906
-0.602532 -0.763266 0.233197
-0.678275 -0.667456 0.30732
-0.740053 -0.559849 0.37268
-0.786489 -0.445033 0.42823
-0.817382 -0.327241 0.474131
-0.83337 -0.210135 0.511211
-0.835761 -0.0968323 0.540488
-0.82647 0.0100784 0.562891
-0.807953 0.108603 0.579152
-0.78304 0.197454 0.589797
-0.754669 0.27612 0.595174
-0.725596 0.344835 0.595482
-0.698137 0.404454 0.59078
-0.673988 0.456277 0.580991
-0.654122 0.501874 0.565903
-0.638744 0.542944 0.545176
-0.627289 0.581221 0.518354
-0.618413 0.618413 0.484903
-0.609929 0.656215 0.444261
-0.598569 0.696431 0.395851
-0.579432 0.741276 0.338775
-0.545184 0.793511 0.270398
-0.485813 0.852304 0.193816
-0.270307 0.658084 0.702751
-0.240465 0.735123 0.633855
-0.0970928 0.757784 0.645242
0.107913 0.745644 0.657549
0.342783 0.682944 0.645048
0.567706 0.567706 0.596171
0.750413 0.415889 0.513728
0.877925 0.24931 0.40877
0.952672 0.0840658 0.292146
0.982622 -0.0719061 0.171123
0.975099 -0.215967 0.050396
0.935365 -0.347511 -0.0657947
0.867828 -0.466028 -0.172315
0.777916 -0.570575 -0.263233
0.673069 -0.66026 -0.33322
0.562033 -0.735018 -0.379299
0.452886 -0.795949 -0.401696
0.351131 -0.845019 -0.403298
0.258872 -0.884447 -0.38825
0.175092 -0.916166 -0.360531
0.0965788 -0.941456 -0.323008
0.0190374 -0.96066 -0.277072
-0.0618076 -0.9729 -0.222814
-0.149148 -0.975844 -0.159638
-0.24412 -0.965814 -0.0872257
-0.345138 -0.938529 -0.00656149
-0.447937 -0.890526 0.0794713
-0.546605 -0.820689 0.166409
-0.635254 -0.730919 0.249419
-0.709456 -0.625499 0.324689
-0.76677 -0.509739 0.390167
-0.806482 -0.388799 0.445445
-0.829095 -0.267158 0.491149
-0.835965 -0.148551 0.528295
-0.829148 -0.0360305 0.557867
-0.811316 0.0680421 0.580635
-0.785596 0.162097 0.597129
-0.755294 0.245433 0.607695
-0.72357 0.318187 0.612539
-0.693134 0.381203 0.611759
-0.666033 0.435819 0.605361
-0.643527 0.483658 0.593252
-0.626047 0.526456 0.575247
-0.613203 0.565951 0.551074
-0.603818 0.603818 0.520391
-0.595947 0.64166 0.482824
-0.586768 0.681084 0.437982
-0.572217 0.723934 0.38534
-0.546292 0.772594 0.323516
-0.500585 0.829293 0.248369
-0.281064 0.577451 0.76652
-0.366128 0.726514 0.581488
-0.266927 0.776766 0.570424
-0.0911667 0.802406 0.589774
0.135803 0.788498 0.599857
0.379456 0.71991 0.581156
0.600724 0.600724 0.527506
0.773999 0.450486 0.444958
0.893067 0.289941 0.344042
0.963369 0.132282 0.233285
0.992877 -0.0169109 0.117939
0.987691 -0.15641 0.00162843
0.951597 -0.286356 -0.111641
0.887671 -0.40648 -0.216364
0.800399 -0.515561 -0.305875
0.696854 -0.611932 -0.374077
0.585964 -0.694483 -0.417541
0.47623 -0.763326 -0.436507
0.373459 -0.819746 -0.434218
0.279721 -0.865645 -0.415229
0.193661 -0.902908 -0.383736
0.111562 -0.93286 -0.34253
0.0286511 -0.955785 -0.292667
-0.0595849 -0.970458 -0.233797
-0.156112 -0.973856 -0.165028
-0.261188 -0.961435 -0.0861589
-0.371706 -0.92835 0.00114802
-0.48165 -0.871418 0.0929691
-0.583791 -0.790788 0.183961
-0.671838 -0.690101 0.269063
-0.741795 -0.575131 0.344913
-0.792069 -0.452057 0.410209
-0.822852 -0.326383 0.465176
-0.835503 -0.202648 0.510753
-0.832214 -0.0844942 0.547979
-0.81587 0.0252801 0.577683
-0.789888 0.12477 0.600425
-0.757947 0.213036 0.616548
-0.723632 0.290092 0.626261
-0.690088 0.356748 0.62969
-0.65976 0.414379 0.626903
-0.634242 0.464665 0.617919
-0.614226 0.509394 0.602697
-0.59952 0.550322 0.581138
-0.589107 0.589107 0.553088
-0.581221 0.627289 0.518354
-0.573353 0.666335 0.476723
-0.562054 0.707797 0.427924
-0.542392 0.753628 0.37129
-0.507205 0.806366 0.304167
-0.447235 0.864336 0.230008
-0.447948 0.67648 0.584566
-0.411644 0.763434 0.497712
-0.274313 0.815384 0.509806
-0.0723242 0.843627 0.532036
0.17026 0.825495 0.538117
0.415889 0.750413 0.513728
0.628813 0.628813 0.457372
0.790913 0.482256 0.376678
0.901479 0.329431 0.280732
0.967691 0.18067 0.175874
0.997051 0.0394711 0.0658111
0.994461 -0.0942387 -0.0465435
0.962412 -0.221443 -0.157246
0.902781 -0.342327 -0.260384
0.819098 -0.455588 -0.348594
0.717916 -0.558856 -0.415062
0.60812 -0.649861 -0.455928
0.498458 -0.727508 -0.471457
0.394925 -0.792201 -0.465244
0.299508 -0.845413 -0.442235
0.210478 -0.888941 -0.406795
0.123611 -0.924123 -0.361547
0.0337154 -0.951073 -0.30712
-0.0637836 -0.968004 -0.242693
-0.171261 -0.970937 -0.167187
-0.287541 -0.954353 -0.0808154
-0.407459 -0.913121 0.0137081
-0.523033 -0.845025 0.111216
-0.626031 -0.752191 0.205655
-0.710387 -0.640312 0.29215
-0.773108 -0.516513 0.368128
-0.813782 -0.387529 0.433106
-0.833668 -0.258948 0.487795
-0.835092 -0.135175 0.533244
-0.821163 -0.0195593 0.570359
-0.795593 0.0855942 0.599754
-0.762435 0.179065 0.621795
-0.725706 0.2607 0.6367
-0.689014 0.331258 0.644614
-0.655245 0.392138 0.645663
-0.626378 0.445086 0.63996
-0.60341 0.491947 0.627602
-0.586376 0.534509 0.608657