# vtk DataFile Version 2.0
tmp/0.000.00-10.000.000.001.0097.vtk
ASCII
DATASET UNSTRUCTURED_GRID
POINTS 5000 float
0.25 0.25 0
1.25 0.25 0
2.25 0.25 0
3.25 0.25 0
4.25 0.25 0
5.25 0.25 0
6.25 0.25 0
7.25 0.25 0
8.25 0.25 0
9.25 0.25 0
10.25 0.25 0
11.25 0.25 0
12.25 0.25 0
13.25 0.25 0
14.25 0.25 0
15.25 0.25 0
16.25 0.25 0
17.25 0.25 0
18.25 0.25 0
19.25 0.25 0
20.25 0.25 0
21.25 0.25 0
22.25 0.25 0
23.25 0.25 0
24.25 0.25 0
25.25 0.25 0
26.25 0.25 0
27.25 0.25 0
28.25 0.25 0
29.25 0.25 0
30.25 0.25 0
31.25 0.25 0
32.25 0.25 0
33.25 0.25 0
34.25 0.25 0
35.25 0.25 0
36.25 0.25 0
37.25 0.25 0
38.25 0.25 0
39.25 0.25 0
40.25 0.25 0
41.25 0.25 0
42.25 0.25 0
43.25 0.25 0
44.25 0.25 0
45.25 0.25 0
46.25 0.25 0
47.25 0.25 0
48.25 0.25 0
49.25 0.25 0
0.75 0.75 0
1.75 0.75 0
2.75 0.75 0
3.75 0.75 0
4.75 0.75 0
5.75 0.75 0
6.75 0.75 0
7.75 0.75 0
8.75 0.75 0
9.75 0.75 0
10.75 0.75 0
11.75 0.75 0
12.75 0.75 0
13.75 0.75 0
14.75 0.75 0
15.75 0.75 0
16.75 0.75 0
17.75 0.75 0
18.75 0.75 0
19.75 0.75 0
20.75 0.75 0
21.75 0.75 0
22.75 0.75 0
23.75 0.75 0
24.75 0.75 0
25.75 0.75 0
26.75 0.75 0
27.75 0.75 0
28.75 0.75 0
29.75 0.75 0
30.75 0.75 0
31.75 0.75 0
32.75 0.75 0
33.75 0.75 0
34.75 0.75 0
35.75 0.75 0
36.75 0.75 0
37.75 0.75 0
38.75 0.75 0
39.75 0.75 0
40.75 0.75 0
41.75 0.75 0
42.75 0.75 0
43.75 0.75 0
44.75 0.75 0
45.75 0.75 0
46.75 0.75 0
47.75 0.75 0
48.75 0.75 0
49.75 0.75 0
0.25 1.25 0
1.25 1.25 0
2.25 1.25 0
3.25 1.25 0
4.25 1.25 0
5.25 1.25 0
6.25 1.25 0
7.25 1.25 0
8.25 1.25 0
9.25 1.25 0
10.25 1.25 0
11.25 1.25 0
12.25 1.25 0
13.25 1.25 0
14.25 1.25 0
15.25 1.25 0
16.25 1.25 0
17.25 1.25 0
18.25 1.25 0
19.25 1.25 0
20.25 1.25 0
21.25 1.25 0
22.25 1.25 0
23.25 1.25 0
24.25 1.25 0
25.25 1.25 0
26.25 1.25 0
27.25 1.25 0
28.25 1.25 0
29.25 1.25 0
30.25 1.25 0
31.25 1.25 0
32.25 1.25 0
33.25 1.25 0
34.25 1.25 0
35.25 1.25 0
36.25 1.25 0
37.25 1.25 0
38.25 1.25 0
39.25 1.25 0
40.25 1.25 0
41.25 1.25 0
42.25 1.25 0
43.25 1.25 0
44.25 1.25 0
45.25 1.25 0
46.25 1.25 0
47.25 1.25 0
48.25 1.25 0
49.25 1.25 0
0.75 1.75 0
1.75 1.75 0
2.75 1.75 0
3.75 1.75 0
4.75 1.75 0
5.75 1.75 0
6.75 1.75 0
7.75 1.75 0
8.75 1.75 0
9.75 1.75 0
10.75 1.75 0
11.75 1.75 0
12.75 1.75 0
13.75 1.75 0
14.75 1.75 0
15.75 1.75 0
16.75 1.75 0
17.75 1.75 0
18.75 1.75 0
19.75 1.75 0
20.75 1.75 0
21.75 1.75 0
22.75 1.75 0
23.75 1.75 0
24.75 1.75 0
25.75 1.75 0
26.75 1.75 0
27.75 1.75 0
28.75 1.75 0
29.75 1.75 0
30.75 1.75 0
31.75 1.75 0
32.75 1.75 0
33.75 1.75 0
34.75 1.75 0
35.75 1.75 0
36.75 1.75 0
37.75 1.75 0
38.75 1.75 0
39.75 1.75 0
40.75 1.75 0
41.75 1.75 0
42.75 1.75 0
43.75 1.75 0
44.75 1.75 0
45.75 1.75 0
46.75 1.75 0
47.75 1.75 0
48.75 1.75 0
49.75 1.75 0
0.25 2.25 0
1.25 2.25 0
2.25 2.25 0
3.25 2.25 0
4.25 2.25 0
5.25 2.25 0
6.25 2.25 0
7.25 2.25 0
8.25 2.25 0
9.25 2.25 0
10.25 2.25 0
11.25 2.25 0
12.25 2.25 0
13.25 2.25 0
14.25 2.25 0
15.25 2.25 0
16.25 2.25 0
17.25 2.25 0
18.25 2.25 0
19.25 2.25 0
20.25 2.25 0
21.25 2.25 0
22.25 2.25 0
23.25 2.25 0
24.25 2.25 0
25.25 2.25 0
26.25 2.25 0
27.25 2.25 0
28.25 2.25 0
29.25 2.25 0
30.25 2.25 0
31.25 2.25 0
32.25 2.25 0
33.25 2.25 0
34.25 2.25 0
35.25 2.25 0
36.25 2.25 0
37.25 2.25 0
38.25 2.25 0
39.25 2.25 0
40.25 2.25 0
41.25 2.25 0
42.25 2.25 0
43.25 2.25 0
44.25 2.25 0
45.25 2.25 0
46.25 2.25 0
47.25 2.25 0
48.25 2.25 0
49.25 2.25 0
0.75 2.75 0
1.75 2.75 0
2.75 2.75 0
3.75 2.75 0
4.75 2.75 0
5.75 2.75 0
6.75 2.75 0
7.75 2.75 0
8.75 2.75 0
9.75 2.75 0
10.75 2.75 0
11.75 2.75 0
12.75 2.75 0
13.75 2.75 0
14.75 2.75 0
15.75 2.75 0
16.75 2.75 0
17.75 2.75 0
18.75 2.75 0
19.75 2.75 0
20.75 2.75 0
21.75 2.75 0
22.75 2.75 0
23.75 2.75 0
24.75 2.75 0
25.75 2.75 0
26.75 2.75 0
27.75 2.75 0
28.75 2.75 0
29.75 2.75 0
30.75 2.75 0
31.75 2.75 0
32.75 2.75 0
33.75 2.75 0
34.75 2.75 0
35.75 2.75 0
36.75 2.75 0
37.75 2.75 0
38.75 2.75 0
39.75 2.75 0
40.75 2.75 0
41.75 2.75 0
42.75 2.75 0
43.75 2.75 0
44.75 2.75 0
45.75 2.75 0
46.75 2.75 0
47.75 2.75 0
48.75 2.75 0
49.75 2.75 0
0.25 3.25 0
1.25 3.25 0
2.25 3.25 0
3.25 3.25 0
4.25 3.25 0
5.25 3.25 0
6.25 3.25 0
7.25 3.25 0
8.25 3.25 0
9.25 3.25 0
10.25 3.25 0
11.25 3.25 0
12.25 3.25 0
13.25 3.25 0
14.25 3.25 0
15.25 3.25 0
16.25 3.25 0
17.25 3.25 0
18.25 3.25 0
19.25 3.25 0
20.25 3.25 0
21.25 3.25 0
22.25 3.25 0
23.25 3.25 0
24.25 3.25 0
25.25 3.25 0
26.25 3.25 0
27.25 3.25 0
28.25 3.25 0
29.25 3.25 0
30.25 3.25 0
31.25 3.25 0
32.25 3.25 0
33.25 3.25 0
34.25 3.25 0
35.25 3.25 0
36.25 3.25 0
37.25 3.25 0
38.25 3.25 0
39.25 3.25 0
40.25 3.25 0
41.25 3.25 0
42.25 3.25 0
43.25 3.25 0
44.25 3.25 0
45.25 3.25 0
46.25 3.25 0
47.25 3.25 0
48.25 3.25 0
49.25 3.25 0
0.75 3.75 0
1.75 3.75 0
2.75 3.75 0
3.75 3.75 0
4.75 3.75 0
5.75 3.75 0
6.75 3.75 0
7.75 3.75 0
8.75 3.75 0
9.75 3.75 0
10.75 3.75 0
11.75 3.75 0
12.75 3.75 0
13.75 3.75 0
14.75 3.75 0
15.75 3.75 0
16.75 3.75 0
17.75 3.75 0
18.75 3.75 0
19.75 3.75 0
20.75 3.75 0
21.75 3.75 0
22.75 3.75 0
23.75 3.75 0
24.75 3.75 0
25.75 3.75 0
26.75 3.75 0
27.75 3.75 0
28.75 3.75 0
29.75 3.75 0
30.75 3.75 0
31.75 3.75 0
32.75 3.75 0
33.75 3.75 0
34.75 3.75 0
35.75 3.75 0
36.75 3.75 0
37.75 3.75 0
38.75 3.75 0
39.75 3.75 0
40.75 3.75 0
41.75 3.75 0
42.75 3.75 0
43.75 3.75 0
44.75 3.75 0
45.75 3.75 0
46.75 3.75 0
47.75 3.75 0
48.75 3.75 0
49.75 3.75 0
0.25 4.25 0
1.25 4.25 0
2.25 4.25 0
3.25 4.25 0
4.25 4.25 0
5.25 4.25 0
6.25 4.25 0
7.25 4.25 0
8.25 4.25 0
9.25 4.25 0
10.25 4.25 0
11.25 4.25 0
12.25 4.25 0
13.25 4.25 0
14.25 4.25 0
15.25 4.25 0
16.25 4.25 0
17.25 4.25 0
18.25 4.25 0
19.25 4.25 0
20.25 4.25 0
21.25 4.25 0
22.25 4.25 0
23.25 4.25 0
24.25 4.25 0
25.25 4.25 0
26.25 4.25 0
27.25 4.25 0
28.25 4.25 0
29.25 4.25 0
30.25 4.25 0
31.25 4.25 0
32.25 4.25 0
33.25 4.25 0
34.25 4.25 0
35.25 4.25 0
36.25 4.25 0
37.25 4.25 0
38.25 4.25 0
39.25 4.25 0
40.25 4.25 0
41.25 4.25 0
42.25 4.25 0
43.25 4.25 0
44.25 4.25 0
45.25 4.25 0
46.25 4.25 0
47.25 4.25 0
48.25 4.25 0
49.25 4.25 0
0.75 4.75 0
1.75 4.75 0
2.75 4.75 0
3.75 4.75 0
4.75 4.75 0
5.75 4.75 0
6.75 4.75 0
7.75 4.75 0
8.75 4.75 0
9.75 4.75 0
10.75 4.75 0
11.75 4.75 0
12.75 4.75 0
13.75 4.75 0
14.75 4.75 0
15.75 4.75 0
16.75 4.75 0
17.75 4.75 0
18.75 4.75 0
19.75 4.75 0
20.75 4.75 0
21.75 4.75 0
22.75 4.75 0
23.75 4.75 0
24.75 4.75 0
25.75 4.75 0
26.75 4.75 0
27.75 4.75 0
28.75 4.75 0
29.75 4.75 0
30.75 4.75 0
31.75 4.75 0
32.75 4.75 0
33.75 4.75 0
34.75 4.75 0
35.75 4.75 0
36.75 4.75 0
37.75 4.75 0
38.75 4.75 0
39.75 4.75 0
40.75 4.75 0
41.75 4.75 0
42.75 4.75 0
43.75 4.75 0
44.75 4.75 0
45.75 4.75 0
46.75 4.75 0
47.75 4.75 0
48.75 4.75 0
49.75 4.75 0
0.25 5.25 0
1.25 5.25 0
2.25 5.25 0
3.25 5.25 0
4.25 5.25 0
5.25 5.25 0
6.25 5.25 0
7.25 5.25 0
8.25 5.25 0
9.25 5.25 0
10.25 5.25 0
11.25 5.25 0
12.25 5.25 0
13.25 5.25 0
14.25 5.25 0
15.25 5.25 0
16.25 5.25 0
17.25 5.25 0
18.25 5.25 0
19.25 5.25 0
20.25 5.25 0
21.25 5.25 0
22.25 5.25 0
23.25 5.25 0
24.25 5.25 0
25.25 5.25 0
26.25 5.25 0
27.25 5.25 0
28.25 5.25 0
29.25 5.25 0
30.25 5.25 0
31.25 5.25 0
32.25 5.25 0
33.25 5.25 0
34.25 5.25 0
35.25 5.25 0
36.25 5.25 0
37.25 5.25 0
38.25 5.25 0
39.25 5.25 0
40.25 5.25 0
41.25 5.25 0
42.25 5.25 0
43.25 5.25 0
44.25 5.25 0
45.25 5.25 0
46.25 5.25 0
47.25 5.25 0
48.25 5.25 0
49.25 5.25 0
0.75 5.75 0
1.75 5.75 0
2.75 5.75 0
3.75 5.75 0
4.75 5.75 0
5.75 5.75 0
6.75 5.75 0
7.75 5.75 0
8.75 5.75 0
9.75 5.75 0
10.75 5.75 0
11.75 5.75 0
12.75 5.75 0
13.75 5.75 0
14.75 5.75 0
15.75 5.75 0
16.75 5.75 0
17.75 5.75 0
18.75 5.75 0
19.75 5.75 0
20.75 5.75 0
21.75 5.75 0
22.75 5.75 0
23.75 5.75 0
24.75 5.75 0
25.75 5.75 0
26.75 5.75 0
27.75 5.75 0
28.75 5.75 0
29.75 5.75 0
30.75 5.75 0
31.75 5.75 0
32.75 5.75 0
33.75 5.75 0
34.75 5.75 0
35.75 5.75 0
36.75 5.75 0
37.75 5.75 0
38.75 5.75 0
39.75 5.75 0
40.75 5.75 0
41.75 5.75 0
42.75 5.75 0
43.75 5.75 0
44.75 5.75 0
45.75 5.75 0
46.75 5.75 0
47.75 5.75 0
48.75 5.75 0
49.75 5.75 0
0.25 6.25 0
1.25 6.25 0
2.25 6.25 0
3.25 6.25 0
4.25 6.25 0
5.25 6.25 0
6.25 6.25 0
7.25 6.25 0
8.25 6.25 0
9.25 6.25 0
10.25 6.25 0
11.25 6.25 0
12.25 6.25 0
13.25 6.25 0
14.25 6.25 0
15.25 6.25 0
16.25 6.25 0
17.25 6.25 0
18.25 6.25 0
19.25 6.25 0
20.25 6.25 0
21.25 6.25 0
22.25 6.25 0
23.25 6.25 0
24.25 6.25 0
25.25 6.25 0
26.25 6.25 0
27.25 6.25 0
28.25 6.25 0
29.25 6.25 0
30.25 6.25 0
31.25 6.25 0
32.25 6.25 0
33.25 6.25 0
34.25 6.25 0
35.25 6.25 0
36.25 6.25 0
37.25 6.25 0
38.25 6.25 0
39.25 6.25 0
40.25 6.25 0
41.25 6.25 0
42.25 6.25 0
43.25 6.25 0
44.25 6.25 0
45.25 6.25 0
46.25 6.25 0
47.25 6.25 0
48.25 6.25 0
49.25 6.25 0
0.75 6.75 0
1.75 6.75 0
2.75 6.75 0
3.75 6.75 0
4.75 6.75 0
5.75 6.75 0
6.75 6.75 0
7.75 6.75 0
8.75 6.75 0
9.75 6.75 0
10.75 6.75 0
11.75 6.75 0
12.75 6.75 0
13.75 6.75 0
14.75 6.75 0
15.75 6.75 0
16.75 6.75 0
17.75 6.75 0
18.75 6.75 0
19.75 6.75 0
20.75 6.75 0
21.75 6.75 0
22.75 6.75 0
23.75 6.75 0
24.75 6.75 0
25.75 6.75 0
26.75 6.75 0
27.75 6.75 0
28.75 6.75 0
29.75 6.75 0
30.75 6.75 0
31.75 6.75 0
32.75 6.75 0
33.75 6.75 0
34.75 6.75 0
35.75 6.75 0
36.75 6.75 0
37.75 6.75 0
38.75 6.75 0
39.75 6.75 0
40.75 6.75 0
41.75 6.75 0
42.75 6.75 0
43.75 6.75 0
44.75 6.75 0
45.75 6.75 0
46.75 6.75 0
47.75 6.75 0
48.75 6.75 0
49.75 6.75 0
0.25 7.25 0
1.25 7.25 0
2.25 7.25 0
3.25 7.25 0
4.25 7.25 0
5.25 7.25 0
6.25 7.25 0
7.25 7.25 0
8.25 7.25 0
9.25 7.25 0
10.25 7.25 0
11.25 7.25 0
12.25 7.25 0
13.25 7.25 0
14.25 7.25 0
15.25 7.25 0
16.25 7.25 0
17.25 7.25 0
18.25 7.25 0
19.25 7.25 0
20.25 7.25 0
21.25 7.25 0
22.25 7.25 0
23.25 7.25 0
24.25 7.25 0
25.25 7.25 0
26.25 7.25 0
27.25 7.25 0
28.25 7.25 0
29.25 7.25 0
30.25 7.25 0
31.25 7.25 0
32.25 7.25 0
33.25 7.25 0
34.25 7.25 0
35.25 7.25 0
36.25 7.25 0
37.25 7.25 0
38.25 7.25 0
39.25 7.25 0
40.25 7.25 0
41.25 7.25 0
42.25 7.25 0
43.25 7.25 0
44.25 7.25 0
45.25 7.25 0
46.25 7.25 0
47.25 7.25 0
48.25 7.25 0
49.25 7.25 0
0.75 7.75 0
1.75 7.75 0
2.75 7.75 0
3.75 7.75 0
4.75 7.75 0
5.75 7.75 0
6.75 7.75 0
7.75 7.75 0
8.75 7.75 0
9.75 7.75 0
10.75 7.75 0
11.75 7.75 0
12.75 7.75 0
13.75 7.75 0
14.75 7.75 0
15.75 7.75 0
16.75 7.75 0
17.75 7.75 0
18.75 7.75 0
19.75 7.75 0
20.75 7.75 0
21.75 7.75 0
[...]
POINT_DATA 5000
VECTORS velocity float
0.516169 0.516169 0.683476
0.577467 0.438055 0.688941
0.660451 0.333268 0.672858
0.746107 0.206177 0.6331
0.819707 0.0594807 0.569686
0.86877 -0.0997653 0.485063
0.885089 -0.261769 0.384831
0.865784 -0.416782 0.276967
0.812831 -0.557018 0.170402
0.731799 -0.677527 0.0736735
0.630415 -0.776234 -0.00611272
0.517238 -0.853447 -0.0639714
0.400545 -0.91109 -0.0973542
0.287473 -0.951896 -0.10608
0.183477 -0.978715 -0.0919393
0.092116 -0.994052 -0.0580955
0.0151111 -0.99985 -0.00844953
-0.047396 -0.997473 0.0529188
-0.0964802 -0.98781 0.122159
-0.134045 -0.97142 0.195894
-0.162464 -0.948677 0.271324
-0.184281 -0.919876 0.346221
-0.201987 -0.8853 0.418863
-0.217852 -0.845258 0.487933
-0.233827 -0.8001 0.552417
-0.251481 -0.750212 0.611506
-0.271973 -0.696013 0.664528
-0.29604 -0.63795 0.710901
-0.324007 -0.576495 0.750115
-0.355808 -0.512136 0.78174
-0.391013 -0.445389 0.805443
-0.428886 -0.376788 0.821028
-0.468445 -0.3069 0.828475
-0.508545 -0.236324 0.827969
-0.547979 -0.165691 0.819918
-0.585583 -0.0956694 0.804947
-0.620341 -0.0269451 0.783869
-0.651484 0.0398003 0.757618
-0.678559 0.10393 0.727156
-0.701464 0.164905 0.693365
-0.720433 0.222332 0.656921
-0.735982 0.276021 0.618177
-0.74881 0.326022 0.577056
-0.75965 0.372662 0.532967
-0.769072 0.416601 0.484738
-0.777158 0.458939 0.430582
-0.782932 0.501461 0.368177
-0.783303 0.54712 0.29512
-0.771361 0.600611 0.210401
-0.735579 0.667104 0.117881
0.507063 0.507063 0.696976
0.590339 0.410622 0.694903
0.686331 0.291262 0.666421
0.77698 0.152207 0.610848
0.847337 -0.00253229 0.53105
0.886696 -0.164625 0.432052
0.889728 -0.324288 0.321282
0.856373 -0.472816 0.207535
0.790752 -0.603963 0.0996985
0.699761 -0.714354 0.00567243
0.591733 -0.803226 -0.0684134
0.475272 -0.871796 -0.118692
0.358297 -0.922481 -0.143709
0.247334 -0.958137 -0.144222
0.1471 -0.981479 -0.12272
0.0603964 -0.994735 -0.0827911
-0.0117507 -0.999525 -0.0285053
-0.0697865 -0.996909 0.0360944
-0.115239 -0.987522 0.107337
-0.150325 -0.971721 0.182102
-0.177601 -0.949717 0.257869
-0.199674 -0.921664 0.332666
-0.218993 -0.887716 0.404972
-0.237701 -0.848055 0.473604
-0.257542 -0.802901 0.537608
-0.279808 -0.752519 0.596174
-0.305319 -0.697223 0.648583
-0.334422 -0.637381 0.694196
-0.367014 -0.573422 0.732454
-0.402591 -0.505839 0.76292
-0.440318 -0.435195 0.785319
-0.479115 -0.362121 0.799573
-0.517765 -0.28732 0.805833
-0.555023 -0.211562 0.804482
-0.589731 -0.13568 0.796121
-0.620919 -0.0605628 0.781532
-0.647894 0.0128785 0.761622
-0.670304 0.0837544 0.737345
-0.688166 0.151264 0.70961
-0.701851 0.214769 0.679176
-0.712025 0.273869 0.646542
-0.719558 0.328451 0.611846
-0.725388 0.378737 0.574779
-0.730354 0.425303 0.534509
-0.734967 0.469136 0.489627
-0.739044 0.511738 0.438107
-0.741043 0.555394 0.37735
-0.736806 0.603686 0.304434
-0.71725 0.662243 0.216767
-0.667104 0.735579 0.117881
0.438055 0.577467 0.688941
0.504321 0.504321 0.700942
0.604452 0.39835 0.689895
0.70977 0.270384 0.650476
0.802734 0.123316 0.583447
0.869333 -0.0368453 0.492851
0.900764 -0.200688 0.385161
0.894006 -0.358487 0.268776
0.851051 -0.502359 0.152796
0.777478 -0.627238 0.0458378
0.68098 -0.730928 -0.044845
0.570116 -0.813621 -0.113968
0.453282 -0.877155 -0.158541
0.3379 -0.924218 -0.177891
0.229857 -0.957659 -0.173364
0.133201 -0.980005 -0.14781
0.0501148 -0.993213 -0.10496
-0.0189036 -0.998628 -0.0488437
-0.0747114 -0.997066 0.0166623
-0.119131 -0.98896 0.0881288
-0.154562 -0.974494 0.162701
-0.183635 -0.953723 0.238099
-0.208944 -0.926639 0.312542
-0.232831 -0.893228 0.384621
-0.257253 -0.853493 0.453178
-0.283679 -0.807484 0.5172
-0.313039 -0.755325 0.575752
-0.345704 -0.697248 0.62796
-0.381502 -0.633622 0.673038
-0.419781 -0.564975 0.710343
-0.459508 -0.491998 0.739453
-0.499408 -0.415523 0.760218
-0.538111 -0.336497 0.772791
-0.5743 -0.255936 0.777609
-0.606837 -0.174901 0.775344
-0.634856 -0.0944664 0.766834
-0.657827 -0.0157016 0.753005
-0.675593 0.06037 0.734799
-0.688366 0.132823 0.713099
-0.696705 0.200901 0.688651
-0.701446 0.264088 0.66199
-0.703609 0.322174 0.633355
-0.704278 0.375292 0.602618
-0.704459 0.423939 0.569221
-0.704906 0.468996 0.532118
-0.705878 0.511777 0.489715
-0.706717 0.554188 0.439803
-0.704998 0.599126 0.379508
-0.694601 0.651301 0.305511
-0.662243 0.71725 0.216767
0.410622 0.590339 0.694903
0.506699 0.506699 0.697505
0.621721 0.394732 0.676498
0.734378 0.260098 0.626928
0.828165 0.106782 0.550218
0.89055 -0.0572565 0.451268
0.914783 -0.221894 0.337543
0.899912 -0.377694 0.217958
0.849548 -0.517637 0.101583
0.770278 -0.6377 -0.00339099
0.670237 -0.736625 -0.090362
0.557991 -0.815285 -0.154776
0.441637 -0.875892 -0.194347
0.328122 -0.921229 -0.208982
0.222777 -0.95404 -0.200444
0.129095 -0.976635 -0.17181
0.0487508 -0.990721 -0.126867
-0.0181876 -0.997412 -0.069561
-0.0729143 -0.997332 -0.00358632
-0.117492 -0.990753 0.0678602
-0.154464 -0.977717 0.142165
-0.186517 -0.958128 0.217262
-0.21621 -0.931809 0.291523
-0.245763 -0.898547 0.363613
-0.27691 -0.858132 0.432355
-0.310788 -0.810412 0.496631
-0.347876 -0.755369 0.555337
-0.387985 -0.693195 0.607411
-0.430313 -0.624365 0.65192
-0.473581 -0.549665 0.688178
-0.516225 -0.470169 0.715858
-0.556622 -0.387156 0.735039
-0.593295 -0.302005 0.746186
-0.625071 -0.216101 0.750058
-0.651163 -0.130767 0.747587
-0.671208 -0.0472352 0.739762
-0.685259 0.0333696 0.727535
-0.693747 0.110058 0.71176
-0.697438 0.182022 0.693144
-0.697347 0.24869 0.672206
-0.69465 0.309791 0.649223
-0.690569 0.365395 0.62418
-0.686242 0.415929 0.59672
-0.682587 0.462185 0.566092
-0.680126 0.505331 0.531102
-0.678719 0.546998 0.490035
-0.677005 0.589556 0.440554
-0.671054 0.636745 0.379793
-0.651301 0.694601 0.305511
-0.600611 0.771361 0.210401
0.333268 0.660451 0.672858
0.39835 0.604452 0.689895
0.515023 0.515023 0.685203
0.642259 0.398471 0.65477
0.760319 0.258225 0.596016
0.853671 0.100153 0.511092
0.911579 -0.0663414 0.405736
0.929368 -0.230885 0.288039
0.907849 -0.384586 0.167044
0.851809 -0.521311 0.0515439
0.768436 -0.63791 -0.050765
0.666044 -0.733803 -0.133857
0.55309 -0.810276 -0.193763
0.437385 -0.869701 -0.228726
0.325486 -0.914819 -0.239092
0.222283 -0.948205 -0.226931
0.130824 -0.971942 -0.195484
0.0523649 -0.987515 -0.148567
-0.0133884 -0.995848 -0.0900435
-0.0679224 -0.997415 -0.0234442
-0.113512 -0.992365 0.0482374
-0.152829 -0.980619 0.122596
-0.188608 -0.961938 0.197743
-0.223363 -0.935965 0.272173
-0.259173 -0.902267 0.344591
-0.297506 -0.860397 0.413772
-0.339091 -0.809996 0.478461
-0.38385 -0.750931 0.537366
-0.430916 -0.68345 0.589243
-0.478774 -0.608285 0.63306
-0.52551 -0.526671 0.668174
-0.569136 -0.440234 0.694462
-0.607894 -0.350803 0.712322
-0.640471 -0.260203 0.722559
-0.666094 -0.170112 0.72621
-0.684533 -0.0819944 0.724356
-0.696038 0.0029039 0.717999
-0.701264 0.0835427 0.707989
-0.70119 0.159093 0.694998
-0.697023 0.228967 0.67951
-0.690106 0.292866 0.661803
-0.681803 0.350821 0.641926
-0.673384 0.403205 0.619661
-0.665902 0.450738 0.594483
-0.660058 0.494478 0.565522
-0.656028 0.53585 0.5315
-0.653101 0.576818 0.490652
-0.648803 0.620319 0.440748
-0.636745 0.671054 0.379793
-0.603686 0.736806 0.304434
0.291262 0.686331 0.666421
0.394732 0.621721 0.676498
0.528617 0.528617 0.664174
0.665567 0.407843 0.625048
0.787036 0.262902 0.558084
0.878764 0.101464 0.466347
0.932019 -0.066216 0.356308
0.944073 -0.229944 0.23633
0.917125 -0.381564 0.115287
0.856717 -0.515784 0.00156372
0.770325 -0.630135 -0.0976146
0.666276 -0.724471 -0.176688
0.552887 -0.80027 -0.232129
0.437741 -0.859901 -0.26259
0.327095 -0.905967 -0.268763
0.225492 -0.940828 -0.252974
0.13561 -0.966344 -0.218606
0.0583439 -0.983801 -0.169504
-0.00692582 -0.993967 -0.109463
-0.0619538 -0.9972 -0.0418754
-0.109213 -0.993552 0.0304412
-0.151498 -0.982837 0.105259
-0.191578 -0.964673 0.180842
-0.231913 -0.938507 0.255776
-0.274399 -0.903664 0.32878
-0.32017 -0.859445 0.398554
-0.369439 -0.8053 0.463688
-0.421435 -0.741064 0.522701
-0.474501 -0.667188 0.574202
-0.526369 -0.584866 0.617145
-0.574586 -0.495969 0.65105
-0.616962 -0.40279 0.676105
-0.6519 -0.307704 0.693069
-0.678534 -0.212875 0.703047
-0.696704 -0.120115 0.707231
-0.706835 -0.0308663 0.706705
-0.709799 0.0537497 0.702351
-0.706795 0.132884 0.694825
-0.699239 0.205951 0.684579
-0.688656 0.272646 0.671876
-0.676571 0.332979 0.656793
-0.664396 0.387294 0.639203
-0.653319 0.436258 0.618752
-0.644187 0.480845 0.59482
-0.637387 0.522337 0.566482
-0.632614 0.562398 0.532455
-0.628325 0.603356 0.49109
-0.620319 0.648803 0.440748
-0.599126 0.704998 0.379508
-0.54712 0.783303 0.29512
0.206177 0.746107 0.6331
0.270384 0.70977 0.650476
0.398471 0.642259 0.65477
0.546299 0.546299 0.634913
0.690455 0.421527 0.587867
0.813373 0.272876 0.513774
0.902452 0.109377 0.416674
0.951029 -0.0584059 0.303532
0.958058 -0.2208 0.182678
0.926726 -0.370481 0.0626299
0.862974 -0.502901 -0.0486569
0.774341 -0.616084 -0.144349
0.669084 -0.710114 -0.219237
0.555397 -0.786489 -0.270128
0.440692 -0.847449 -0.296008
0.330997 -0.895385 -0.29787
0.230567 -0.932418 -0.278272
0.141756 -0.960183 -0.240738
0.0651289 -0.979786 -0.189147
-0.000238141 -0.991872 -0.12724
-0.056353 -0.996708 -0.0582878
-0.105876 -0.994266 0.0150455
-0.151712 -0.984256 0.0906891
-0.196654 -0.96614 0.167033
-0.243069 -0.939148 0.242734
-0.292608 -0.902334 0.316501
-0.345962 -0.854748 0.386932
-0.402675 -0.795703 0.452448
-0.461135 -0.725142 0.511395
-0.518806 -0.643936 0.562305
-0.572726 -0.553973 0.604233
-0.620126 -0.457914 0.636991
-0.65894 -0.358728 0.661144
-0.688057 -0.259205 0.677783
-0.707291 -0.161656 0.688191
-0.717199 -0.0678371 0.693559
-0.718863 0.0209778 0.694835
-0.713712 0.103892 0.692691
-0.703385 0.180315 0.687558
-0.689609 0.24995 0.679679
-0.674095 0.312807 0.669139
-0.658418 0.369212 0.655873
-0.643908 0.419803 0.639647
-0.631555 0.465501 0.620037
-0.621908 0.507486 0.596396
-0.614929 0.547214 0.567819
-0.609667 0.586579 0.533134
-0.603356 0.628325 0.49109
-0.589556 0.677005 0.440554
-0.555394 0.741043 0.37735
0.152207 0.77698 0.610848
0.260098 0.734378 0.626928
0.407843 0.665567 0.625048
0.566724 0.566724 0.598036
0.715574 0.438343 0.543883
0.838124 0.287026 0.463858
0.923743 0.122665 0.36284
0.967744 -0.0443255 0.248004
0.970426 -0.205029 0.127421
0.935588 -0.352975 0.0091828
0.869295 -0.484249 -0.099139
0.779018 -0.5972 -0.191007
0.672907 -0.691976 -0.261467
0.559056 -0.769959 -0.307603
0.444749 -0.833163 -0.328692
0.335822 -0.883707 -0.326015
0.236274 -0.923447 -0.302356
0.148157 -0.953798 -0.261378
0.0717203 -0.975708 -0.207001
0.00575101 -0.989718 -0.142916
-0.0519992 -0.996028 -0.0722857
-0.104365 -0.994536 0.00236698
-0.154347 -0.984844 0.0791131
-0.204733 -0.966233 0.156455
-0.257738 -0.937676 0.233099
-0.314669 -0.897937 0.307723
-0.375611 -0.84583 0.378798
-0.439255 -0.78065 0.444568
-0.503001 -0.702661 0.503247
-0.563434 -0.613433 0.553392
-0.617093 -0.515762 0.594295
-0.661242 -0.413153 0.62615
-0.694318 -0.309124 0.649896
-0.715972 -0.206653 0.666842
-0.726823 -0.107973 0.678285
-0.728145 -0.01462 0.685267
-0.721606 0.0723985 0.688508
-0.709087 0.152468 0.68844
-0.692544 0.225299 0.68529
-0.673896 0.290907 0.679144
-0.654905 0.349621 0.669973
-0.637068 0.402068 0.657636
-0.621522 0.449139 0.64186
-0.608962 0.491949 0.622215
-0.599545 0.531821 0.59809
-0.592698 0.570348 0.568693
-0.586579 0.609667 0.533134
-0.576818 0.653101 0.490652
-0.554188 0.706717 0.439803
-0.501461 0.782932 0.368177
0.0594807 0.819707 0.569686
0.123316 0.802734 0.583447
0.258225 0.760319 0.596016
0.421527 0.690455 0.587867
0.588589 0.588589 0.554189
0.739684 0.457179 0.493816
0.860263 0.304265 0.409108
0.941814 0.14013 0.305533
0.981416 -0.0253213 0.190216
0.980355 -0.184082 0.0708426
0.942733 -0.330512 -0.0449101
0.874555 -0.461217 -0.149777
0.783139 -0.574734 -0.237435
0.67652 -0.671142 -0.303133
0.562703 -0.751592 -0.344202
0.448858 -0.817788 -0.360208
0.340643 -0.871525 -0.352713
0.241807 -0.914374 -0.324729
0.154103 -0.947535 -0.280053
0.0774796 -0.971816 -0.222644
0.0104451 -0.987679 -0.156147
-0.0494743 -0.995269 -0.0836204
-0.105272 -0.994416 -0.00744878
-0.16002 -0.984588 0.0705747
-0.216452 -0.964847 0.149056
-0.276551 -0.933868 0.22674
-0.34112 -0.890104 0.302245
-0.409436 -0.832204 0.373896
-0.47913 -0.759629 0.439771
-0.546522 -0.673269 0.498019
-0.607453 -0.575684 0.547347
-0.658324 -0.470713 0.5874
-0.696867 -0.362611 0.618781
-0.722364 -0.255188 0.642705
-0.735386 -0.151347 0.660532
-0.737364 -0.0530464 0.67341
-0.730213 0.0385009 0.682134
-0.716079 0.122609 0.687166
-0.697177 0.198979 0.688732
-0.675661 0.26764 0.686914
-0.653509 0.328934 0.68171
-0.63241 0.383492 0.673046
-0.613665 0.432198 0.660772
-0.598117 0.476136 0.644632
-0.586083 0.516545 0.62425
-0.577245 0.554827 0.599128
-0.570348 0.592698 0.568693
-0.562398 0.632614 0.532455
-0.546998 0.678719 0.490035
-0.511738 0.739044 0.438107
-0.00253229 0.847337 0.53105
0.106782 0.828165 0.550218
0.262902 0.787036 0.558084
0.438343 0.715574 0.543883
0.6107 0.6107 0.504074
0.761748 0.476986 0.438434
0.878994 0.32354 0.350273
0.956034 0.160613 0.24536
0.991433 -0.00267276 0.130586
0.987141 -0.159303 0.0132114
0.947331 -0.304424 -0.0994449
0.877828 -0.435062 -0.200348
0.785755 -0.549825 -0.283339
0.679018 -0.648613 -0.343855
0.565525 -0.732242 -0.379478
0.452318 -0.802031 -0.39007
0.344863 -0.859407 -0.377477
0.246652 -0.905641 -0.344932
0.159143 -0.941724 -0.296361
0.0819902 -0.968347 -0.235756
0.0134419 -0.985914 -0.166711
-0.0491852 -0.994527 -0.0921753
-0.109022 -0.993935 -0.0143929
-0.16918 -0.98344 0.0649848
-0.232273 -0.961832 0.144668
-0.299916 -0.927433 0.223425
-0.372206 -0.8784 0.299794
-0.447355 -0.813347 0.371941
-0.521747 -0.732193 0.437806
-0.590664 -0.636811 0.495568
-0.649523 -0.530996 0.544209
-0.695071 -0.419609 0.583784
-0.725941 -0.307397 0.615237
-0.742477 -0.198152 0.639893
-0.746201 -0.0944599 0.658985
-0.739274 0.00211881 0.673401
-0.724136 0.0907483 0.68366
-0.703294 0.171089 0.690005
-0.679173 0.243178 0.692523
-0.654 0.307375 0.691234
-0.629682 0.364333 0.686121
-0.607709 0.414948 0.677132
-0.589085 0.460297 0.664158
-0.574273 0.501579 0.647015
-0.563146 0.540082 0.625442
-0.554827 0.577245 0.599128
-0.547214 0.614929 0.567819
-0.53585 0.656028 0.5315
-0.511777 0.705878 0.489715
-0.458939 0.777158 0.430582
-0.0997653 0.86877 0.485063
-0.0368453 0.869333 0.492851
0.100153 0.853671 0.511092
0.272876 0.813373 0.513774
0.457179 0.739684 0.493816
0.632012 0.632012 0.448467
0.780946 0.496812 0.378551
0.893738 0.343861 0.288083
0.965949 0.183015 0.18289
0.997329 0.0224142 0.0695225
0.990227 -0.131952 -0.0451565
0.948733 -0.275958 -0.154119
0.878423 -0.406964 -0.250506
0.786197 -0.523552 -0.328311
0.679801 -0.625339 -0.383174
0.56701 -0.712722 -0.412949
0.454702 -0.786565 -0.417805
0.348123 -0.847889 -0.399869
0.250493 -0.897655 -0.362588
0.162982 -0.936661 -0.310006
0.0849651 -0.965504 -0.246137
0.014448 -0.984548 -0.174516
-0.0514427 -0.993859 -0.0979688
-0.115953 -0.993081 -0.0185831
-0.182184 -0.981299 0.0621458
-0.252534 -0.956957 0.143037
-0.328062 -0.917988 0.222874
-0.407888 -0.862305 0.300095
-0.488886 -0.788724 0.372699
-0.5661 -0.698008 0.438538
-0.633998 -0.593379 0.495931
-0.688086 -0.479969 0.544213
-0.725988 -0.363445 0.583823
-0.747552 -0.248689 0.615889
-0.75426 -0.139169 0.641657
-0.748499 -0.0369938 0.662103
-0.733036 0.0567306 0.67782
-0.710711 0.141566 0.689093
-0.684267 0.217537 0.696029
-0.656216 0.285025 0.698671
-0.628717 0.344715 0.697055
-0.603478 0.397534 0.691218
-0.581678 0.444577 0.681177
-0.563934 0.487033 0.666916
-0.550276 0.526131 0.648369
-0.540082 0.563146 0.625442
-0.531821 0.599545 0.59809
-0.522337 0.637387 0.566482
-0.505331 0.680126 0.531102
-0.469136 0.734967 0.489627
-0.164625 0.886696 0.432052
-0.0572565 0.89055 0.451268
0.101464 0.878764 0.466347
0.287026 0.838124 0.463858
0.476986 0.761748 0.438434
0.651649 0.651649 0.388209
0.796679 0.515829 0.314997
0.904113 0.364332 0.223253
0.971262 0.206313 0.118681
0.99878 0.0488074 0.00746814
0.989221 -0.103214 -0.103867
0.946497 -0.246295 -0.208526
0.875897 -0.378046 -0.299808
0.784065 -0.496941 -0.371876
0.678538 -0.602226 -0.420607
0.566894 -0.6938 -0.444154
0.455794 -0.772014 -0.442997
0.350228 -0.837452 -0.419541
0.253139 -0.890767 -0.377433
0.165422 -0.932582 -0.320821
0.0861918 -0.963428 -0.253729
0.0132319 -0.983649 -0.179612
-0.0565036 -0.993265 -0.101151
-0.126347 -0.991779 -0.0202496
-0.199327 -0.977984 0.061778
-0.277473 -0.9499 0.143872
-0.361039 -0.905045 0.224823
-0.447835 -0.841231 0.302943
-0.53316 -0.757835 0.376068
-0.610791 -0.656923 0.442026
-0.674853 -0.543338 0.499358
-0.721564 -0.423439 0.547763
-0.749884 -0.30332 0.587938
-0.761025 -0.187611 0.621001
-0.757535 -0.079239 0.647967
-0.742532 0.0202418 0.669505
-0.719248 0.110198 0.685958
-0.6908 0.1906 0.697472
-0.660033 0.261845 0.704126
-0.629399 0.324658 0.706013
-0.600852 0.380013 0.703254
-0.575775 0.429045 0.695991
-0.554948 0.472963 0.684353
-0.538546 0.512978 0.668448
-0.526131 0.550276 0.648369
-0.516545 0.586083 0.62425
-0.507486 0.621908 0.596396
-0.494478 0.660058 0.565522
-0.468996 0.704906 0.532118
-0.416601 0.769072 0.484738
-0.261769 0.885089 0.384831
-0.200688 0.900764 0.385161
-0.0663414 0.911579 0.405736
0.109377 0.902452 0.416674
0.304265 0.860263 0.409108
0.496812 0.780946 0.378551
0.668922 0.668922 0.324172
0.808544 0.533347 0.248593
0.909913 0.384154 0.156474
0.971833 0.229567 0.0532972
0.995627 0.0754488 -0.0550916
0.983922 -0.0742095 -0.162454
0.940406 -0.216553 -0.262185
0.870059 -0.349375 -0.347756
0.779216 -0.47096 -0.413544
0.67513 -0.580116 -0.455702
0.565105 -0.676174 -0.472699
0.45552 -0.758926 -0.465331
0.351086 -0.828499 -0.436265
0.254474 -0.885246 -0.389336
0.166319 -0.929645 -0.328782
0.0855034 -0.962189 -0.258616
0.00960175 -0.983217 -0.182187
-0.0645892 -0.992686 -0.101993
-0.140453 -0.989891 -0.0197113
-0.220847 -0.973235 0.0635608
-0.307225 -0.94023 0.146901
-0.398694 -0.88801 0.229087
-0.491394 -0.814553 0.308278
-0.578925 -0.720283 0.382149
-0.654133 -0.609023 0.448554
-0.711476 -0.487309 0.506292
-0.748511 -0.362387 0.555344
-0.765811 -0.240312 0.596476
-0.76593 -0.125157 0.630624
-0.752334 -0.0191837 0.658503
-0.728714 0.0766282 0.680517
-0.698636 0.162123 0.696868
-0.665344 0.237687 0.707688
-0.631634 0.304091 0.713139
-0.599746 0.362368 0.713438
-0.571294 0.413715 0.708846
-0.547235 0.459388 0.69964
-0.527892 0.500614 0.686087
-0.512978 0.538546 0.668448
-0.501579 0.574273 0.647015
-0.491949 0.608962 0.622215
-0.480845 0.644187 0.59482
-0.462185 0.682587 0.566092
-0.425303 0.730354 0.534509
-0.324288 0.889728 0.321282
-0.221894 0.914783 0.337543
-0.066216 0.932019 0.356308
0.122665 0.923743 0.36284
0.32354 0.878994 0.350273
0.515829 0.796679 0.314997
0.683316 0.683316 0.257216
0.816313 0.548807 0.180122
0.911083 0.402632 0.0884087
0.967665 0.251921 -0.0126941
0.987871 0.101361 -0.117633
0.974325 -0.0459792 -0.220399
0.930473 -0.187775 -0.31458
0.86095 -0.321934 -0.393857
0.771719 -0.446497 -0.452869
0.669655 -0.559765 -0.488084
0.561697 -0.660452 -0.498297
0.453894 -0.747753 -0.484609
0.350662 -0.821332 -0.449943
0.254418 -0.881263 -0.398305
0.165565 -0.927916 -0.334007
0.0827663 -0.961778 -0.261023
0.00339791 -0.98319 -0.182553
-0.0758918 -0.992002 -0.100859
-0.158491 -0.987208 -0.0173329
-0.246937 -0.966699 0.0671913
-0.341809 -0.927405 0.151939
-0.440636 -0.866205 0.235644
-0.537564 -0.781669 0.316257
-0.624597 -0.675852 0.391282
-0.69428 -0.554653 0.458624
-0.742192 -0.4261 0.51729
-0.767707 -0.297819 0.567388
-0.773084 -0.175399 0.609571
-0.762074 -0.0621543 0.6445
-0.738887 0.0403574 0.67262
-0.707632 0.131732 0.694193
-0.672046 0.212297 0.709426
-0.635339 0.282854 0.718567
-0.600087 0.344512 0.721946
-0.568167 0.398551 0.719961
-0.540736 0.446296 0.713039
-0.51827 0.489024 0.701607
-0.500614 0.527892 0.686087
-0.487033 0.563934 0.666916
-0.476136 0.598117 0.644632
-0.465501 0.631555 0.620037
-0.450738 0.665902 0.594483
-0.423939 0.704459 0.569221
-0.372662 0.75965 0.532967
-0.416782 0.865784 0.276967
-0.358487 0.894006 0.268776
-0.230885 0.929368 0.288039