# vtk DataFile Version 2.0
tmp/0.000.00-10.000.000.001.0083.vtk
ASCII
DATASET UNSTRUCTURED_GRID
POINTS 5000 float
0.75 0.25 0
1.75 0.25 0
2.75 0.25 0
3.75 0.25 0
4.75 0.25 0
5.75 0.25 0
6.75 0.25 0
7.75 0.25 0
8.75 0.25 0
9.75 0.25 0
10.75 0.25 0
11.75 0.25 0
12.75 0.25 0
13.75 0.25 0
14.75 0.25 0
15.75 0.25 0
16.75 0.25 0
17.75 0.25 0
18.75 0.25 0
19.75 0.25 0
20.75 0.25 0
21.75 0.25 0
22.75 0.25 0
23.75 0.25 0
24.75 0.25 0
25.75 0.25 0
26.75 0.25 0
27.75 0.25 0
28.75 0.25 0
29.75 0.25 0
30.75 0.25 0
31.75 0.25 0
32.75 0.25 0
33.75 0.25 0
34.75 0.25 0
35.75 0.25 0
36.75 0.25 0
37.75 0.25 0
38.75 0.25 0
39.75 0.25 0
40.75 0.25 0
41.75 0.25 0
42.75 0.25 0
43.75 0.25 0
44.75 0.25 0
45.75 0.25 0
46.75 0.25 0
47.75 0.25 0
48.75 0.25 0
49.75 0.25 0
0.25 0.75 0
1.25 0.75 0
2.25 0.75 0
3.25 0.75 0
4.25 0.75 0
5.25 0.75 0
6.25 0.75 0
7.25 0.75 0
8.25 0.75 0
9.25 0.75 0
10.25 0.75 0
11.25 0.75 0
12.25 0.75 0
13.25 0.75 0
14.25 0.75 0
15.25 0.75 0
16.25 0.75 0
17.25 0.75 0
18.25 0.75 0
19.25 0.75 0
20.25 0.75 0
21.25 0.75 0
22.25 0.75 0
23.25 0.75 0
24.25 0.75 0
25.25 0.75 0
26.25 0.75 0
27.25 0.75 0
28.25 0.75 0
29.25 0.75 0
30.25 0.75 0
31.25 0.75 0
32.25 0.75 0
33.25 0.75 0
34.25 0.75 0
35.25 0.75 0
36.25 0.75 0
37.25 0.75 0
38.25 0.75 0
39.25 0.75 0
40.25 0.75 0
41.25 0.75 0
42.25 0.75 0
43.25 0.75 0
44.25 0.75 0
45.25 0.75 0
46.25 0.75 0
47.25 0.75 0
48.25 0.75 0
49.25 0.75 0
0.75 1.25 0
1.75 1.25 0
2.75 1.25 0
3.75 1.25 0
4.75 1.25 0
5.75 1.25 0
6.75 1.25 0
7.75 1.25 0
8.75 1.25 0
9.75 1.25 0
10.75 1.25 0
11.75 1.25 0
12.75 1.25 0
13.75 1.25 0
14.75 1.25 0
15.75 1.25 0
16.75 1.25 0
17.75 1.25 0
18.75 1.25 0
19.75 1.25 0
20.75 1.25 0
21.75 1.25 0
22.75 1.25 0
23.75 1.25 0
24.75 1.25 0
25.75 1.25 0
26.75 1.25 0
27.75 1.25 0
28.75 1.25 0
29.75 1.25 0
30.75 1.25 0
31.75 1.25 0
32.75 1.25 0
33.75 1.25 0
34.75 1.25 0
35.75 1.25 0
36.75 1.25 0
37.75 1.25 0
38.75 1.25 0
39.75 1.25 0
40.75 1.25 0
41.75 1.25 0
42.75 1.25 0
43.75 1.25 0
44.75 1.25 0
45.75 1.25 0
46.75 1.25 0
47.75 1.25 0
48.75 1.25 0
49.75 1.25 0
0.25 1.75 0
1.25 1.75 0
2.25 1.75 0
3.25 1.75 0
4.25 1.75 0
5.25 1.75 0
6.25 1.75 0
7.25 1.75 0
8.25 1.75 0
9.25 1.75 0
10.25 1.75 0
11.25 1.75 0
12.25 1.75 0
13.25 1.75 0
14.25 1.75 0
15.25 1.75 0
16.25 1.75 0
17.25 1.75 0
18.25 1.75 0
19.25 1.75 0
20.25 1.75 0
21.25 1.75 0
22.25 1.75 0
23.25 1.75 0
24.25 1.75 0
25.25 1.75 0
26.25 1.75 0
27.25 1.75 0
28.25 1.75 0
29.25 1.75 0
30.25 1.75 0
31.25 1.75 0
32.25 1.75 0
33.25 1.75 0
34.25 1.75 0
35.25 1.75 0
36.25 1.75 0
37.25 1.75 0
38.25 1.75 0
39.25 1.75 0
40.25 1.75 0
41.25 1.75 0
42.25 1.75 0
43.25 1.75 0
44.25 1.75 0
45.25 1.75 0
46.25 1.75 0
47.25 1.75 0
48.25 1.75 0
49.25 1.75 0
0.75 2.25 0
1.75 2.25 0
2.75 2.25 0
3.75 2.25 0
4.75 2.25 0
5.75 2.25 0
6.75 2.25 0
7.75 2.25 0
8.75 2.25 0
9.75 2.25 0
10.75 2.25 0
11.75 2.25 0
12.75 2.25 0
13.75 2.25 0
14.75 2.25 0
15.75 2.25 0
16.75 2.25 0
17.75 2.25 0
18.75 2.25 0
19.75 2.25 0
20.75 2.25 0
21.75 2.25 0
22.75 2.25 0
23.75 2.25 0
24.75 2.25 0
25.75 2.25 0
26.75 2.25 0
27.75 2.25 0
28.75 2.25 0
29.75 2.25 0
30.75 2.25 0
31.75 2.25 0
32.75 2.25 0
33.75 2.25 0
34.75 2.25 0
35.75 2.25 0
36.75 2.25 0
37.75 2.25 0
38.75 2.25 0
39.75 2.25 0
40.75 2.25 0
41.75 2.25 0
42.75 2.25 0
43.75 2.25 0
44.75 2.25 0
45.75 2.25 0
46.75 2.25 0
47.75 2.25 0
48.75 2.25 0
49.75 2.25 0
0.25 2.75 0
1.25 2.75 0
2.25 2.75 0
3.25 2.75 0
4.25 2.75 0
5.25 2.75 0
6.25 2.75 0
7.25 2.75 0
8.25 2.75 0
9.25 2.75 0
10.25 2.75 0
11.25 2.75 0
12.25 2.75 0
13.25 2.75 0
14.25 2.75 0
15.25 2.75 0
16.25 2.75 0
17.25 2.75 0
18.25 2.75 0
19.25 2.75 0
20.25 2.75 0
21.25 2.75 0
22.25 2.75 0
23.25 2.75 0
24.25 2.75 0
25.25 2.75 0
26.25 2.75 0
27.25 2.75 0
28.25 2.75 0
29.25 2.75 0
30.25 2.75 0
31.25 2.75 0
32.25 2.75 0
33.25 2.75 0
34.25 2.75 0
35.25 2.75 0
36.25 2.75 0
37.25 2.75 0
38.25 2.75 0
39.25 2.75 0
40.25 2.75 0
41.25 2.75 0
42.25 2.75 0
43.25 2.75 0
44.25 2.75 0
45.25 2.75 0
46.25 2.75 0
47.25 2.75 0
48.25 2.75 0
49.25 2.75 0
0.75 3.25 0
1.75 3.25 0
2.75 3.25 0
3.75 3.25 0
4.75 3.25 0
5.75 3.25 0
6.75 3.25 0
7.75 3.25 0
8.75 3.25 0
9.75 3.25 0
10.75 3.25 0
11.75 3.25 0
12.75 3.25 0
13.75 3.25 0
14.75 3.25 0
15.75 3.25 0
16.75 3.25 0
17.75 3.25 0
18.75 3.25 0
19.75 3.25 0
20.75 3.25 0
21.75 3.25 0
22.75 3.25 0
23.75 3.25 0
24.75 3.25 0
25.75 3.25 0
26.75 3.25 0
27.75 3.25 0
28.75 3.25 0
29.75 3.25 0
30.75 3.25 0
31.75 3.25 0
32.75 3.25 0
33.75 3.25 0
34.75 3.25 0
35.75 3.25 0
36.75 3.25 0
37.75 3.25 0
38.75 3.25 0
39.75 3.25 0
40.75 3.25 0
41.75 3.25 0
42.75 3.25 0
43.75 3.25 0
44.75 3.25 0
45.75 3.25 0
46.75 3.25 0
47.75 3.25 0
48.75 3.25 0
49.75 3.25 0
0.25 3.75 0
1.25 3.75 0
2.25 3.75 0
3.25 3.75 0
4.25 3.75 0
5.25 3.75 0
6.25 3.75 0
7.25 3.75 0
8.25 3.75 0
9.25 3.75 0
10.25 3.75 0
11.25 3.75 0
12.25 3.75 0
13.25 3.75 0
14.25 3.75 0
15.25 3.75 0
16.25 3.75 0
17.25 3.75 0
18.25 3.75 0
19.25 3.75 0
20.25 3.75 0
21.25 3.75 0
22.25 3.75 0
23.25 3.75 0
24.25 3.75 0
25.25 3.75 0
26.25 3.75 0
27.25 3.75 0
28.25 3.75 0
29.25 3.75 0
30.25 3.75 0
31.25 3.75 0
32.25 3.75 0
33.25 3.75 0
34.25 3.75 0
35.25 3.75 0
36.25 3.75 0
37.25 3.75 0
38.25 3.75 0
39.25 3.75 0
40.25 3.75 0
41.25 3.75 0
42.25 3.75 0
43.25 3.75 0
44.25 3.75 0
45.25 3.75 0
46.25 3.75 0
47.25 3.75 0
48.25 3.75 0
49.25 3.75 0
0.75 4.25 0
1.75 4.25 0
2.75 4.25 0
3.75 4.25 0
4.75 4.25 0
5.75 4.25 0
6.75 4.25 0
7.75 4.25 0
8.75 4.25 0
9.75 4.25 0
10.75 4.25 0
11.75 4.25 0
12.75 4.25 0
13.75 4.25 0
14.75 4.25 0
15.75 4.25 0
16.75 4.25 0
17.75 4.25 0
18.75 4.25 0
19.75 4.25 0
20.75 4.25 0
21.75 4.25 0
22.75 4.25 0
23.75 4.25 0
24.75 4.25 0
25.75 4.25 0
26.75 4.25 0
27.75 4.25 0
28.75 4.25 0
29.75 4.25 0
30.75 4.25 0
31.75 4.25 0
32.75 4.25 0
33.75 4.25 0
34.75 4.25 0
35.75 4.25 0
36.75 4.25 0
37.75 4.25 0
38.75 4.25 0
39.75 4.25 0
40.75 4.25 0
41.75 4.25 0
42.75 4.25 0
43.75 4.25 0
44.75 4.25 0
45.75 4.25 0
46.75 4.25 0
47.75 4.25 0
48.75 4.25 0
49.75 4.25 0
0.25 4.75 0
1.25 4.75 0
2.25 4.75 0
3.25 4.75 0
4.25 4.75 0
5.25 4.75 0
6.25 4.75 0
7.25 4.75 0
8.25 4.75 0
9.25 4.75 0
10.25 4.75 0
11.25 4.75 0
12.25 4.75 0
13.25 4.75 0
14.25 4.75 0
15.25 4.75 0
16.25 4.75 0
17.25 4.75 0
18.25 4.75 0
19.25 4.75 0
20.25 4.75 0
21.25 4.75 0
22.25 4.75 0
23.25 4.75 0
24.25 4.75 0
25.25 4.75 0
26.25 4.75 0
27.25 4.75 0
28.25 4.75 0
29.25 4.75 0
30.25 4.75 0
31.25 4.75 0
32.25 4.75 0
33.25 4.75 0
34.25 4.75 0
35.25 4.75 0
36.25 4.75 0
37.25 4.75 0
38.25 4.75 0
39.25 4.75 0
40.25 4.75 0
41.25 4.75 0
42.25 4.75 0
43.25 4.75 0
44.25 4.75 0
45.25 4.75 0
46.25 4.75 0
47.25 4.75 0
48.25 4.75 0
49.25 4.75 0
0.75 5.25 0
1.75 5.25 0
2.75 5.25 0
3.75 5.25 0
4.75 5.25 0
5.75 5.25 0
6.75 5.25 0
7.75 5.25 0
8.75 5.25 0
9.75 5.25 0
10.75 5.25 0
11.75 5.25 0
12.75 5.25 0
13.75 5.25 0
14.75 5.25 0
15.75 5.25 0
16.75 5.25 0
17.75 5.25 0
18.75 5.25 0
19.75 5.25 0
20.75 5.25 0
21.75 5.25 0
22.75 5.25 0
23.75 5.25 0
24.75 5.25 0
25.75 5.25 0
26.75 5.25 0
27.75 5.25 0
28.75 5.25 0
29.75 5.25 0
30.75 5.25 0
31.75 5.25 0
32.75 5.25 0
33.75 5.25 0
34.75 5.25 0
35.75 5.25 0
36.75 5.25 0
37.75 5.25 0
38.75 5.25 0
39.75 5.25 0
40.75 5.25 0
41.75 5.25 0
42.75 5.25 0
43.75 5.25 0
44.75 5.25 0
45.75 5.25 0
46.75 5.25 0
47.75 5.25 0
48.75 5.25 0
49.75 5.25 0
0.25 5.75 0
1.25 5.75 0
2.25 5.75 0
3.25 5.75 0
4.25 5.75 0
5.25 5.75 0
6.25 5.75 0
7.25 5.75 0
8.25 5.75 0
9.25 5.75 0
10.25 5.75 0
11.25 5.75 0
12.25 5.75 0
13.25 5.75 0
14.25 5.75 0
15.25 5.75 0
16.25 5.75 0
17.25 5.75 0
18.25 5.75 0
19.25 5.75 0
20.25 5.75 0
21.25 5.75 0
22.25 5.75 0
23.25 5.75 0
24.25 5.75 0
25.25 5.75 0
26.25 5.75 0
27.25 5.75 0
28.25 5.75 0
29.25 5.75 0
30.25 5.75 0
31.25 5.75 0
32.25 5.75 0
33.25 5.75 0
34.25 5.75 0
35.25 5.75 0
36.25 5.75 0
37.25 5.75 0
38.25 5.75 0
39.25 5.75 0
40.25 5.75 0
41.25 5.75 0
42.25 5.75 0
43.25 5.75 0
44.25 5.75 0
45.25 5.75 0
46.25 5.75 0
47.25 5.75 0
48.25 5.75 0
49.25 5.75 0
0.75 6.25 0
1.75 6.25 0
2.75 6.25 0
3.75 6.25 0
4.75 6.25 0
5.75 6.25 0
6.75 6.25 0
7.75 6.25 0
8.75 6.25 0
9.75 6.25 0
10.75 6.25 0
11.75 6.25 0
12.75 6.25 0
13.75 6.25 0
14.75 6.25 0
15.75 6.25 0
16.75 6.25 0
17.75 6.25 0
18.75 6.25 0
19.75 6.25 0
20.75 6.25 0
21.75 6.25 0
22.75 6.25 0
23.75 6.25 0
24.75 6.25 0
25.75 6.25 0
26.75 6.25 0
27.75 6.25 0
28.75 6.25 0
29.75 6.25 0
30.75 6.25 0
31.75 6.25 0
32.75 6.25 0
33.75 6.25 0
34.75 6.25 0
35.75 6.25 0
36.75 6.25 0
37.75 6.25 0
38.75 6.25 0
39.75 6.25 0
40.75 6.25 0
41.75 6.25 0
42.75 6.25 0
43.75 6.25 0
44.75 6.25 0
45.75 6.25 0
46.75 6.25 0
47.75 6.25 0
48.75 6.25 0
49.75 6.25 0
0.25 6.75 0
1.25 6.75 0
2.25 6.75 0
3.25 6.75 0
4.25 6.75 0
5.25 6.75 0
6.25 6.75 0
7.25 6.75 0
8.25 6.75 0
9.25 6.75 0
10.25 6.75 0
11.25 6.75 0
12.25 6.75 0
13.25 6.75 0
14.25 6.75 0
15.25 6.75 0
16.25 6.75 0
17.25 6.75 0
18.25 6.75 0
19.25 6.75 0
20.25 6.75 0
21.25 6.75 0
22.25 6.75 0
23.25 6.75 0
24.25 6.75 0
25.25 6.75 0
26.25 6.75 0
27.25 6.75 0
28.25 6.75 0
29.25 6.75 0
30.25 6.75 0
31.25 6.75 0
32.25 6.75 0
33.25 6.75 0
34.25 6.75 0
35.25 6.75 0
36.25 6.75 0
37.25 6.75 0
38.25 6.75 0
39.25 6.75 0
40.25 6.75 0
41.25 6.75 0
42.25 6.75 0
43.25 6.75 0
44.25 6.75 0
45.25 6.75 0
46.25 6.75 0
47.25 6.75 0
48.25 6.75 0
49.25 6.75 0
0.75 7.25 0
1.75 7.25 0
2.75 7.25 0
3.75 7.25 0
4.75 7.25 0
5.75 7.25 0
6.75 7.25 0
7.75 7.25 0
8.75 7.25 0
9.75 7.25 0
10.75 7.25 0
11.75 7.25 0
12.75 7.25 0
13.75 7.25 0
14.75 7.25 0
15.75 7.25 0
16.75 7.25 0
17.75 7.25 0
18.75 7.25 0
19.75 7.25 0
20.75 7.25 0
21.75 7.25 0
22.75 7.25 0
23.75 7.25 0
24.75 7.25 0
25.75 7.25 0
26.75 7.25 0
27.75 7.25 0
28.75 7.25 0
29.75 7.25 0
30.75 7.25 0
31.75 7.25 0
32.75 7.25 0
33.75 7.25 0
34.75 7.25 0
35.75 7.25 0
36.75 7.25 0
37.75 7.25 0
38.75 7.25 0
39.75 7.25 0
40.75 7.25 0
41.75 7.25 0
42.75 7.25 0
43.75 7.25 0
44.75 7.25 0
45.75 7.25 0
46.75 7.25 0
47.75 7.25 0
48.75 7.25 0
49.75 7.25 0
0.25 7.75 0
1.25 7.75 0
2.25 7.75 0
3.25 7.75 0
4.25 7.75 0
5.25 7.75 0
6.25 7.75 0
7.25 7.75 0
8.25 7.75 0
9.25 7.75 0
10.25 7.75 0
11.25 7.75 0
12.25 7.75 0
13.25 7.75 0
14.25 7.75 0
15.25 7.75 0
16.25 7.75 0
17.25 7.75 0
18.25 7.75 0
19.25 7.75 0
20.25 7.75 0
21.25 7.75 0
[...]
POINT_DATA 5000
VECTORS velocity float
0.422655 0.3559 0.833486
0.504484 0.254556 0.825043
0.599358 0.129557 0.789927
0.687806 -0.0169701 0.725696
0.752889 -0.177501 0.63376
0.783265 -0.340599 0.520085
0.774609 -0.494793 0.393905
0.728669 -0.631295 0.265534
0.651192 -0.744993 0.144685
0.549969 -0.834248 0.0395478
0.433463 -0.900113 -0.0436613
0.309938 -0.945383 -0.100946
0.186868 -0.973659 -0.130643
0.0704806 -0.988563 -0.133329
-0.0345652 -0.993165 -0.11148
-0.125342 -0.989715 -0.0689426
-0.200624 -0.979614 -0.0103099
-0.26068 -0.96358 0.0596559
-0.306947 -0.941891 0.136472
-0.341647 -0.914618 0.216221
-0.367423 -0.881804 0.295674
-0.387018 -0.84357 0.372299
-0.403047 -0.800159 0.444182
-0.41783 -0.751934 0.509915
-0.433296 -0.699358 0.568466
-0.450935 -0.642963 0.619077
-0.471774 -0.58333 0.661177
-0.49638 -0.521064 0.694334
-0.524867 -0.456778 0.71824
-0.556933 -0.391084 0.732721
-0.591901 -0.324575 0.73777
-0.628796 -0.257826 0.733582
-0.666427 -0.191386 0.720588
-0.7035 -0.12579 0.699475
-0.738733 -0.0615654 0.671181
-0.770981 0.000758775 0.636858
-0.799345 0.0606554 0.597803
-0.823256 0.117626 0.555349
-0.842517 0.171244 0.510726
-0.857284 0.221217 0.464895
-0.867997 0.267446 0.418395
-0.875249 0.310087 0.371195
-0.879609 0.349614 0.322581
-0.881373 0.386893 0.2711
-0.880223 0.423283 0.214568
-0.874669 0.460847 0.150243
-0.861181 0.502683 0.0753508
-0.832966 0.553203 -0.0115749
-0.779461 0.61701 -0.108347
-0.691184 0.691184 -0.211023
0.3559 0.422655 0.833486
0.421946 0.3304 0.844273
0.523349 0.21258 0.825176
0.629261 0.074228 0.773641
0.718482 -0.0808256 0.690833
0.775907 -0.243412 0.581996
0.793966 -0.402177 0.455929
0.772127 -0.547279 0.322964
0.714757 -0.672199 0.193056
0.628844 -0.773925 0.0748059
0.522401 -0.852337 -0.0248793
0.403566 -0.909367 -0.100932
0.280066 -0.948144 -0.150288
0.15881 -0.972211 -0.172004
0.045494 -0.984874 -0.16719
-0.0557098 -0.988767 -0.138694
-0.142323 -0.985667 -0.0905767
-0.213535 -0.976548 -0.0275065
-0.269988 -0.961774 0.0457946
-0.313439 -0.941349 0.12497
-0.346362 -0.915141 0.206277
-0.371571 -0.883037 0.286671
-0.391897 -0.845032 0.363781
-0.409947 -0.801261 0.435804
-0.427937 -0.751992 0.501376
-0.447593 -0.697617 0.559456
-0.470094 -0.638632 0.60923
-0.496054 -0.575624 0.650067
-0.525544 -0.509258 0.681513
-0.558143 -0.440249 0.703319
-0.593026 -0.369339 0.715478
-0.629084 -0.297256 0.718256
-0.665054 -0.224694 0.712191
-0.699646 -0.152305 0.698068
-0.73166 -0.080725 0.676873
-0.760085 -0.0105968 0.649738
-0.784182 0.0573989 0.61787
-0.803547 0.122552 0.582489
-0.818139 0.184168 0.544731
-0.828272 0.241646 0.505543
-0.834557 0.29458 0.465551
-0.837787 0.342847 0.424934
-0.838779 0.386695 0.383298
-0.838163 0.42681 0.339582
-0.836113 0.46438 0.292005
-0.831947 0.501181 0.23808
-0.823496 0.539737 0.174752
-0.806041 0.583559 0.0987729
-0.770726 0.637124 0.00737521
-0.703616 0.703616 -0.0992362
0.3304 0.421946 0.844273
0.429256 0.321771 0.843921
0.547191 0.195289 0.813907
0.660044 0.0484504 0.749663
0.747908 -0.112243 0.654244
0.79826 -0.276008 0.535352
0.806883 -0.431646 0.403263
0.776068 -0.570669 0.268431
0.711825 -0.688258 0.140023
0.621684 -0.782852 0.0255327
0.513487 -0.855306 -0.0691574
0.394867 -0.908045 -0.139766
0.272979 -0.944305 -0.183766
0.154213 -0.967471 -0.200544
0.0438374 -0.980532 -0.191402
-0.0543229 -0.985738 -0.159276
-0.138093 -0.984486 -0.108244
-0.206941 -0.977411 -0.0429313
-0.261776 -0.964597 0.032036
-0.304597 -0.945822 0.112433
-0.338081 -0.920766 0.194658
-0.365182 -0.889146 0.275792
-0.38879 -0.850797 0.353535
-0.41147 -0.805699 0.426077
-0.435274 -0.753995 0.491964
-0.461616 -0.696007 0.549986
-0.491218 -0.632254 0.599132
-0.524101 -0.563468 0.63861
-0.559665 -0.490573 0.667917
-0.596826 -0.414637 0.686931
-0.634212 -0.336776 0.695957
-0.670369 -0.258055 0.695711
-0.703939 -0.179417 0.687226
-0.73379 -0.101674 0.671725
-0.759089 -0.0255476 0.650486
-0.779329 0.0482655 0.624753
-0.794356 0.119044 0.595673
-0.804362 0.18605 0.564258
-0.809867 0.24859 0.531337
-0.811664 0.306121 0.497485
-0.810722 0.358363 0.462932
-0.808039 0.405401 0.427461
-0.804465 0.447768 0.390307
-0.800478 0.486497 0.35008
-0.795887 0.523174 0.304717
-0.789389 0.560017 0.251487
-0.777776 0.600065 0.187046
-0.754477 0.647445 0.107609
-0.707071 0.707071 0.0101094
-0.61701 0.779461 -0.108347
0.254556 0.504484 0.825043
0.321771 0.429256 0.843921
0.444244 0.323381 0.835507
0.575884 0.190668 0.794986
0.693285 0.0373925 0.719692
0.778495 -0.127251 0.614616
0.822074 -0.291324 0.489208
0.822921 -0.444133 0.354326
0.785464 -0.57852 0.219913
0.716662 -0.69104 0.0941276
0.624112 -0.78116 -0.0165309
0.515272 -0.850331 -0.10692
0.397269 -0.901208 -0.173212
0.276802 -0.936996 -0.213118
0.159914 -0.960879 -0.22614
0.0516256 -0.975548 -0.213636
-0.0444472 -0.982921 -0.17858
-0.126337 -0.984072 -0.125068
-0.193747 -0.979353 -0.0577117
-0.24785 -0.968614 0.0189164
-0.290911 -0.951437 0.100686
-0.325845 -0.927324 0.184106
-0.355782 -0.895811 0.266351
-0.383686 -0.856538 0.34515
-0.412058 -0.809295 0.418629
-0.442709 -0.754073 0.485162
-0.476612 -0.691144 0.543287
-0.513848 -0.62114 0.591732
-0.553659 -0.5451 0.629545
-0.594649 -0.464434 0.656272
-0.635065 -0.380774 0.672089
-0.673131 -0.295759 0.677806
-0.707316 -0.210832 0.674726
-0.736484 -0.127139 0.6644
-0.759947 -0.0455497 0.648387
-0.777435 0.0332367 0.628084
-0.789055 0.10857 0.604652
-0.795249 0.179785 0.579013
-0.796759 0.246219 0.551861
-0.794569 0.307304 0.523665
-0.789816 0.362684 0.494623
-0.783665 0.412336 0.464595
-0.777144 0.456665 0.433017
-0.770954 0.496567 0.398812
-0.765231 0.533465 0.360328
-0.759226 0.569353 0.315298
-0.750751 0.606919 0.260812
-0.735092 0.649807 0.193368
-0.702839 0.702839 0.109697
-0.637124 0.770726 0.00737521
0.21258 0.523349 0.825176
0.323381 0.444244 0.835507
0.465936 0.334233 0.819263
0.60836 0.196358 0.768988
0.728172 0.0381615 0.684332
0.809899 -0.128983 0.572212
0.847354 -0.292635 0.443121
0.84209 -0.442926 0.307735
0.799968 -0.573937 0.175065
0.728293 -0.683272 0.0522358
0.634395 -0.771048 -0.0550186
0.525263 -0.839013 -0.141968
0.407604 -0.889867 -0.204926
0.287843 -0.926701 -0.241601
0.171882 -0.952481 -0.25147
0.064667 -0.969622 -0.235906
-0.0302702 -0.979745 -0.197947
-0.111115 -0.983644 -0.141769
-0.177808 -0.981425 -0.0720405
-0.231824 -0.972735 0.00666519
-0.275751 -0.956981 0.0902732
-0.312798 -0.933488 0.17538
-0.346306 -0.901596 0.259224
-0.379312 -0.860722 0.339528
-0.414193 -0.810435 0.414294
-0.452389 -0.750576 0.481643
-0.494233 -0.681437 0.539794
-0.538941 -0.603928 0.587208
-0.584814 -0.519639 0.622871
-0.62963 -0.430707 0.646574
-0.671144 -0.339476 0.659031
-0.7075 -0.248111 0.661729
-0.737461 -0.158305 0.656576
-0.760428 -0.0712261 0.645504
-0.776349 0.0123581 0.630183
-0.78559 0.0918751 0.611889
-0.788849 0.166788 0.591522
-0.787096 0.236543 0.569674
-0.781508 0.300623 0.546691
-0.773399 0.358666 0.522697
-0.764096 0.410595 0.497563
-0.754795 0.456722 0.470839
-0.746384 0.497826 0.441678
-0.739244 0.53519 0.408766
-0.733003 0.570622 0.370266
-0.726153 0.606518 0.323786
-0.715293 0.646057 0.266395
-0.693514 0.693514 0.19513
-0.647445 0.754477 0.107609
-0.553203 0.832966 -0.0115749
0.129557 0.599358 0.789927
0.195289 0.547191 0.813907
0.334233 0.465936 0.819263
0.493166 0.352498 0.795319
0.643352 0.210198 0.736148
0.76356 0.0484342 0.643918
0.841259 -0.119938 0.527161
0.87338 -0.28259 0.396674
0.863531 -0.430674 0.262364
0.818327 -0.559362 0.132119
0.744958 -0.667001 0.0121552
0.650277 -0.754072 -0.0922775
0.540807 -0.82241 -0.176552
0.422967 -0.87464 -0.236863
0.303103 -0.913684 -0.270757
0.187166 -0.94228 -0.277627
0.080172 -0.962575 -0.258885
-0.0143591 -0.975909 -0.217705
-0.0947614 -0.982813 -0.158428
-0.161261 -0.983171 -0.0858479
-0.215703 -0.976448 -0.00457834
-0.261074 -0.961886 0.0813419
-0.300929 -0.938627 0.168584
-0.338834 -0.90579 0.254431
-0.37785 -0.862532 0.336553
-0.420103 -0.808178 0.412748
-0.466445 -0.742466 0.480805
-0.516294 -0.66586 0.538582
-0.567761 -0.579815 0.584348
-0.618114 -0.486777 0.617238
-0.664476 -0.38981 0.637589
-0.704477 -0.291973 0.646888
-0.736629 -0.195761 0.647345
-0.76035 -0.102856 0.641318
-0.775777 -0.0142266 0.630847
-0.783543 0.0695771 0.61743
-0.784614 0.148152 0.602023
-0.780195 0.221089 0.585163
-0.771673 0.287976 0.567089
-0.760544 0.348497 0.547835
-0.748306 0.402564 0.527238
-0.736324 0.450439 0.504907
-0.725662 0.492816 0.480154
-0.716906 0.530861 0.451922
-0.709965 0.566225 0.418734
-0.703798 0.60107 0.37866
-0.695901 0.638173 0.329328
-0.681196 0.681196 0.268226
-0.649807 0.735092 0.193368
-0.583559 0.806041 0.0987729
0.074228 0.629261 0.773641
0.190668 0.575884 0.794986
0.352498 0.493166 0.795319
0.524333 0.376525 0.763743
0.679263 0.230563 0.696738
0.79809 0.0665413 0.598852
0.871513 -0.101917 0.479664
0.899207 -0.263082 0.349592
0.886162 -0.409212 0.217402
0.839172 -0.536393 0.0898504
0.764968 -0.64348 -0.0275455
0.669813 -0.731109 -0.129733
0.559814 -0.80106 -0.211921
0.441256 -0.855802 -0.269993
0.320585 -0.898042 -0.301241
0.203966 -0.930262 -0.304976
0.0965804 -0.954328 -0.282718
0.00195742 -0.971295 -0.23787
-0.0784284 -0.981437 -0.175016
-0.145166 -0.98443 -0.0991224
-0.200564 -0.979568 -0.0148614
-0.248071 -0.965929 0.0737648
-0.291623 -0.942457 0.163497
-0.334979 -0.908003 0.251636
-0.381112 -0.861419 0.335725
-0.431674 -0.801791 0.413266
-0.486606 -0.728868 0.48163
-0.544073 -0.643564 0.53834
-0.600894 -0.548261 0.581666
-0.65342 -0.446567 0.611245
-0.69853 -0.342526 0.628276
-0.734274 -0.239684 0.635133
-0.759966 -0.140509 0.634593
-0.775905 -0.0463731 0.629143
-0.783 0.0420938 0.620596
-0.782507 0.124588 0.61005
-0.775893 0.200854 0.598037
-0.764771 0.270614 0.584717
-0.750836 0.333629 0.570033
-0.735771 0.389844 0.553771
-0.721118 0.439505 0.535559
-0.708117 0.483257 0.514814
-0.697543 0.522179 0.490676
-0.689534 0.557799 0.461955
-0.683384 0.592091 0.427101
-0.677204 0.627514 0.384215
-0.66719 0.66719 0.331232
-0.646057 0.715293 0.266395
-0.600065 0.777776 0.187046
-0.502683 0.861181 0.0753508
-0.0169701 0.687806 0.725696
0.0484504 0.660044 0.749663
0.196358 0.60836 0.768988
0.376525 0.524333 0.763743
0.557679 0.404633 0.724753
0.714463 0.255896 0.651199
0.830462 0.090927 0.549605
0.899624 -0.0765392 0.429904
0.923835 -0.235721 0.301602
0.908827 -0.379993 0.172157
0.861109 -0.506215 0.0473069
0.786715 -0.613572 -0.0678853
0.69127 -0.702724 -0.168303
0.580539 -0.775297 -0.248776
0.460822 -0.833529 -0.304748
0.338832 -0.879862 -0.333222
0.221063 -0.916473 -0.333479
0.112914 -0.944909 -0.307242
0.0178939 -0.965917 -0.258234
-0.0627951 -0.979512 -0.191347
-0.130206 -0.985171 -0.111739
-0.187193 -0.982027 -0.0241375
-0.237726 -0.968984 0.0675028
-0.286111 -0.944746 0.159984
-0.336217 -0.907838 0.250574
-0.390722 -0.856761 0.336597
-0.450457 -0.790412 0.415136
-0.514022 -0.708796 0.483103
-0.578003 -0.613721 0.537828
-0.637927 -0.508944 0.577949
-0.689657 -0.399413 0.604021
-0.730487 -0.289935 0.618325
-0.759442 -0.184085 0.623987
-0.776919 -0.0839025 0.623985
-0.784118 0.0097448 0.620536
-0.782623 0.0965861 0.614957
-0.774201 0.176508 0.60783
-0.760718 0.249374 0.599267
-0.744094 0.315051 0.589124
-0.726217 0.373536 0.577131
-0.70882 0.425094 0.562911
-0.69333 0.470351 0.545951
-0.680706 0.510337 0.525542
-0.671286 0.54649 0.500724
-0.664623 0.580637 0.470252
-0.65926 0.614996 0.432616
-0.652262 0.652262 0.386146
-0.638173 0.695901 0.329328
-0.606919 0.750751 0.260812
-0.539737 0.823496 0.174752
-0.0808256 0.718482 0.690833
0.0373925 0.693285 0.719692
0.210198 0.643352 0.736148
0.404633 0.557679 0.724753
0.59147 0.435159 0.678823
0.747487 0.28469 0.600179
0.859562 0.120116 0.496714
0.924674 -0.0452727 0.37806
0.946313 -0.20188 0.252461
0.930399 -0.344187 0.126064
0.882808 -0.469719 0.00377586
0.808724 -0.577896 -0.109555
0.713119 -0.669312 -0.208525
0.601511 -0.745368 -0.287421
0.480351 -0.807998 -0.341176
0.356747 -0.859296 -0.366528
0.2376 -0.901062 -0.362814
0.12852 -0.934461 -0.332063
0.0329253 -0.9599 -0.278401
-0.048362 -0.977131 -0.207067
-0.116961 -0.985439 -0.123412
-0.176348 -0.983801 -0.0321974
-0.231033 -0.970925 0.0626809
-0.285646 -0.94521 0.158065
-0.343996 -0.90477 0.251112
-0.408134 -0.847728 0.338798
-0.477574 -0.772958 0.417683
-0.549084 -0.681166 0.484272
-0.617488 -0.57565 0.536037
-0.677401 -0.461932 0.572491
-0.724978 -0.346165 0.595463
-0.758663 -0.233375 0.608249
-0.778829 -0.126614 0.614325
-0.786971 -0.0272108 0.61639
-0.785053 0.064496 0.616062
-0.775187 0.148504 0.614029
-0.759537 0.22482 0.610376
-0.74028 0.293427 0.604885
-0.719537 0.354393 0.59722
-0.699258 0.408022 0.586989
-0.68107 0.454948 0.57373
-0.666124 0.496182 0.55685
-0.654946 0.533108 0.535576
-0.647305 0.567449 0.508919
-0.642056 0.601241 0.475682
-0.63686 0.63686 0.434534
-0.627514 0.677204 0.384215
-0.606518 0.726153 0.323786
-0.560017 0.789389 0.251487
-0.460847 0.874669 0.150243
-0.177501 0.752889 0.63376
-0.112243 0.747908 0.654244
0.0381615 0.728172 0.684332
0.230563 0.679263 0.696738
0.435159 0.59147 0.678823
0.624153 0.466561 0.626701
0.777146 0.315551 0.544492
0.884531 0.15276 0.440761
0.945903 -0.00941861 0.324314
0.965776 -0.162729 0.20198
0.949816 -0.302746 0.0787029
0.903021 -0.427615 -0.0412242
0.829637 -0.536945 -0.152947
0.734004 -0.631221 -0.250594
0.621478 -0.711552 -0.327809
0.498776 -0.779476 -0.378999
0.373489 -0.836627 -0.400701
0.252948 -0.884323 -0.392416
0.142919 -0.923267 -0.356583
0.0466247 -0.95349 -0.297797
-0.0356064 -0.974474 -0.221658
-0.106054 -0.985332 -0.133694
-0.168867 -0.98488 -0.0386756
-0.229086 -0.971582 0.0595669
-0.291552 -0.943438 0.15787
-0.359731 -0.898053 0.25317
-0.434535 -0.833215 0.341953
-0.51352 -0.748143 0.420213
-0.591191 -0.644943 0.484296
-0.660826 -0.52906 0.532357
-0.717002 -0.407851 0.565302
-0.757138 -0.288096 0.586295
-0.781369 -0.174295 0.599237
-0.791452 -0.0685481 0.607375
-0.789784 0.0285852 0.612718
-0.77889 0.117165 0.616119
-0.761281 0.19734 0.617664
-0.739431 0.269213 0.617062
-0.715734 0.332935 0.613905
-0.692386 0.388859 0.607775
-0.671244 0.437648 0.598243
-0.653666 0.480321 0.584818
-0.640367 0.518238 0.566886
-0.631306 0.553056 0.543674
-0.625581 0.586684 0.514248
-0.621261 0.621261 0.477566
-0.614996 0.65926 0.432616
-0.60107 0.703798 0.37866
-0.569353 0.759226 0.315298
-0.501181 0.831947 0.23808
-0.243412 0.775907 0.581996
-0.127251 0.778495 0.614616
0.0484342 0.76356 0.643918
0.255896 0.714463 0.651199
0.466561 0.624153 0.626701
0.654462 0.497502 0.569361
0.802583 0.347267 0.485043
0.904765 0.187681 0.382329
0.962716 0.0299 0.268856
0.98146 -0.119263 0.150042
0.966088 -0.256485 0.0298097
0.920578 -0.38053 -0.0879423
0.848202 -0.491206 -0.198164
0.752707 -0.588867 -0.294393
0.639361 -0.67426 -0.369582
0.515223 -0.748406 -0.417651
0.388403 -0.812333 -0.435038
0.266625 -0.866735 -0.421523
0.155716 -0.911766 -0.380048
0.0585826 -0.947043 -0.315717
-0.0250494 -0.971796 -0.234488
-0.0981965 -0.984978 -0.14204
-0.165707 -0.985232 -0.0431286
-0.233096 -0.970694 0.0584703
-0.305209 -0.93883 0.159516
-0.384708 -0.886658 0.256589
-0.470635 -0.811838 0.345573
-0.557875 -0.71462 0.422011
-0.638583 -0.599436 0.482586
-0.705349 -0.474309 0.526796
-0.753969 -0.34793 0.557203
-0.783947 -0.22675 0.577937
-0.797212 -0.114081 0.592823
-0.796642 -0.0109335 0.604353
-0.785252 0.0827385 0.613623
-0.765964 0.167215 0.620756
-0.741601 0.242731 0.625388
-0.714865 0.309526 0.627026
-0.688245 0.36801 0.62521
-0.663863 0.418886 0.619533
-0.643308 0.463199 0.609591
-0.6275 0.502314 0.594916
-0.616581 0.537856 0.574925
-0.609847 0.571646 0.548915
-0.60566 0.60566 0.516094
-0.601241 0.642056 0.475682
-0.592091 0.683384 0.427101
-0.570622 0.733003 0.370266
-0.523174 0.795887 0.304717
-0.423283 0.880223 0.214568
-0.340599 0.783265 0.520085
-0.276008 0.79826 0.535352
-0.128983 0.809899 0.572212
0.0665413 0.79809 0.598852
0.28469 0.747487 0.600179
0.497502 0.654462 0.569361
0.681466 0.526923 0.507894
0.823263 0.378854 0.422738
0.919897 0.223898 0.321962
0.974661 0.0717263 0.211876
0.992689 -0.0723589 0.0966088
0.978298 -0.206163 -0.0207161
0.934386 -0.32912 -0.136391
0.863271 -0.441277 -0.245026
0.768147 -0.542851 -0.339504
0.654249 -0.634138 -0.412101
0.528998 -0.715484 -0.456336
0.400991 -0.787122 -0.468663
0.278256 -0.848967 -0.449252
0.166562 -0.900533 -0.401618
0.0683769 -0.94101 -0.331398
-0.0172732 -0.969396 -0.244893
-0.0941981 -0.984506 -0.147903
-0.167942 -0.984762 -0.0451547
-0.244377 -0.967847 0.059602
-0.327987 -0.930521 0.162959
-0.419905 -0.869225 0.261012
-0.516356 -0.78202 0.349029
-0.609036 -0.671269 0.42246
-0.688387 -0.544642 0.479049
-0.747834 -0.412535 0.520154
-0.785625 -0.283847 0.54975
-0.803631 -0.1637 0.572172
-0.805244 -0.0539148 0.590488
-0.794067 0.0454066 0.606131
-0.773512 0.134659 0.619311
-0.746801 0.214221 0.629601
-0.716996 0.284434 0.636407
-0.686919 0.345772 0.639206
-0.659001 0.398983 0.637597
-0.635104 0.445153 0.631254
-0.616377 0.48567 0.619842
-0.603153 0.522157 0.602958
-0.594905 0.556384 0.580108
-0.590212 0.590212 0.550726
-0.586684 0.625581 0.514248
-0.580637 0.664623 0.470252
-0.566225 0.709965 0.418734
-0.533465 0.765231 0.360328
-0.46438 0.836113 0.292005
-0.402177 0.793966 0.455929
-0.291324 0.822074 0.489208
-0.119938 0.841259 0.527161
0.090927 0.830462 0.549605
0.315551 0.777146 0.544492
0.526923 0.681466 0.507894
0.704572 0.554059 0.443393
0.83893 0.409564 0.358406
0.929737 0.260615 0.260133
0.981397 0.115233 0.153562
0.998868 -0.0228378 0.0417309
0.985605 -0.152584 -0.0728028
0.94345 -0.274185 -0.186348
0.873821 -0.387988 -0.29309
0.779412 -0.49406 -0.385255
0.665423 -0.592136 -0.454518
0.539595 -0.681686 -0.494107
0.410909 -0.761934 -0.500611
0.287568 -0.831854 -0.474682
0.175148 -0.890247 -0.420456
0.0755681 -0.935883 -0.344111
-0.0129261 -0.967569 -0.252277
-0.0949752 -0.983983 -0.150854
-0.176777 -0.983243 -0.0445294
-0.264316 -0.96238 0.0629414
-0.361103 -0.917287 0.167896
-0.465686 -0.84407 0.265862
-0.570478 -0.742219 0.351662
-0.66413 -0.617599 0.42131
-0.736987 -0.481492 0.474357
-0.7851 -0.345539 0.514024
-0.80981 -0.21742 0.544919
-0.814992 -0.100324 0.570722
-0.804959 0.00526655 0.593307
-0.783718 0.099814 0.613044
-0.75496 0.183857 0.62947
-0.722148 0.25786 0.641881
-0.688485 0.322371 0.649665
-0.656761 0.378189 0.652409
-0.629157 0.426448 0.649849
-0.607088 0.468576 0.64178
-0.5911 0.506214 0.627971
-0.58084 0.541115 0.608128
-0.575064 0.575064 0.581896
-0.571646 0.609847 0.548915
-0.567449 0.647305 0.508919
-0.557799 0.689534 0.461955
-0.53519 0.739244 0.408766
-0.486497 0.800478 0.35008
-0.386893 0.881373 0.2711
-0.494793 0.774609 0.393905
-0.431646 0.806883 0.403263
-0.292635 0.847354 0.443121
-0.101917 0.871513 0.479664
0.120116 0.859562 0.496714
0.347267 0.802583 0.485043
0.554059 0.704572 0.443393
0.723478 0.57842 0.376842
0.849535 0.438859 0.292735
0.934229 0.297186 0.197223
0.982676 0.159668 0.0940983
0.999491 0.0284515 -0.0144473
0.987281 -0.0966901 -0.126206
0.946924 -0.216767 -0.237375
0.879033 -0.332485 -0.341692
0.785825 -0.44373 -0.430793
0.672414 -0.549525 -0.495865
0.546731 -0.648244 -0.529967
0.417981 -0.737884 -0.529924
0.294386 -0.816327 -0.496938
0.181196 -0.881616 -0.435801
0.0796857 -0.932131 -0.353245
-0.012743 -0.966534 -0.256221
-0.101574 -0.983347 -0.150704
-0.193538 -0.980222 -0.0413209
-0.294293 -0.953281 0.0681618
-0.405385 -0.89748 0.17376
-0.521416 -0.809311 0.270446
-0.630391 -0.691346 0.353055
-0.719267 -0.554144 0.419023
-0.780676 -0.411827 0.470047
-0.814557 -0.275424 0.510528
-0.825076 -0.150296 0.544665
-0.817382 -0.0377191 0.57486
-0.796235 0.0627234 0.601727
-0.765888 0.151738 0.624812
-0.730262 0.229942 0.643308
-0.69298 0.297974 0.656499
-0.657237 0.356697 0.663933
-0.625585 0.407297 0.665397
-0.599754 0.451255 0.660806
-0.580538 0.49025 0.650101
-0.567769 0.526037 0.633185
-0.560362 0.560362 0.60991
-0.556384 0.594905 0.580108
-0.553056 0.631306 0.543674
-0.54649 0.671286 0.500724
-0.530861 0.716906 0.451922
-0.496567 0.770954 0.398812
-0.42681 0.838163 0.339582
-0.547279 0.772127 0.322964
-0.444133 0.822921 0.354326
-0.28259 0.87338 0.396674