# vtk DataFile Version 2.0
tmp/0.000.00-10.000.000.001.0032.vtk
ASCII
DATASET UNSTRUCTURED_GRID
POINTS 5101 float
0 0 0
1 0 0
2 0 0
3 0 0
4 0 0
5 0 0
6 0 0
7 0 0
8 0 0
9 0 0
10 0 0
11 0 0
12 0 0
13 0 0
14 0 0
15 0 0
16 0 0
17 0 0
18 0 0
19 0 0
20 0 0
21 0 0
22 0 0
23 0 0
24 0 0
25 0 0
26 0 0
27 0 0
28 0 0
29 0 0
30 0 0
31 0 0
32 0 0
33 0 0
34 0 0
35 0 0
36 0 0
37 0 0
38 0 0
39 0 0
40 0 0
41 0 0
42 0 0
43 0 0
44 0 0
45 0 0
46 0 0
47 0 0
48 0 0
49 0 0
50 0 0
0.5 0.5 0
1.5 0.5 0
2.5 0.5 0
3.5 0.5 0
4.5 0.5 0
5.5 0.5 0
6.5 0.5 0
7.5 0.5 0
8.5 0.5 0
9.5 0.5 0
10.5 0.5 0
11.5 0.5 0
12.5 0.5 0
13.5 0.5 0
14.5 0.5 0
15.5 0.5 0
16.5 0.5 0
17.5 0.5 0
18.5 0.5 0
19.5 0.5 0
20.5 0.5 0
21.5 0.5 0
22.5 0.5 0
23.5 0.5 0
24.5 0.5 0
25.5 0.5 0
26.5 0.5 0
27.5 0.5 0
28.5 0.5 0
29.5 0.5 0
30.5 0.5 0
31.5 0.5 0
32.5 0.5 0
33.5 0.5 0
34.5 0.5 0
35.5 0.5 0
36.5 0.5 0
37.5 0.5 0
38.5 0.5 0
39.5 0.5 0
40.5 0.5 0
41.5 0.5 0
42.5 0.5 0
43.5 0.5 0
44.5 0.5 0
45.5 0.5 0
46.5 0.5 0
47.5 0.5 0
48.5 0.5 0
49.5 0.5 0
0 1 0
1 1 0
2 1 0
3 1 0
4 1 0
5 1 0
6 1 0
7 1 0
8 1 0
9 1 0
10 1 0
11 1 0
12 1 0
13 1 0
14 1 0
15 1 0
16 1 0
17 1 0
18 1 0
19 1 0
20 1 0
21 1 0
22 1 0
23 1 0
24 1 0
25 1 0
26 1 0
27 1 0
28 1 0
29 1 0
30 1 0
31 1 0
32 1 0
33 1 0
34 1 0
35 1 0
36 1 0
37 1 0
38 1 0
39 1 0
40 1 0
41 1 0
42 1 0
43 1 0
44 1 0
45 1 0
46 1 0
47 1 0
48 1 0
49 1 0
50 1 0
0.5 1.5 0
1.5 1.5 0
2.5 1.5 0
3.5 1.5 0
4.5 1.5 0
5.5 1.5 0
6.5 1.5 0
7.5 1.5 0
8.5 1.5 0
9.5 1.5 0
10.5 1.5 0
11.5 1.5 0
12.5 1.5 0
13.5 1.5 0
14.5 1.5 0
15.5 1.5 0
16.5 1.5 0
17.5 1.5 0
18.5 1.5 0
19.5 1.5 0
20.5 1.5 0
21.5 1.5 0
22.5 1.5 0
23.5 1.5 0
24.5 1.5 0
25.5 1.5 0
26.5 1.5 0
27.5 1.5 0
28.5 1.5 0
29.5 1.5 0
30.5 1.5 0
31.5 1.5 0
32.5 1.5 0
33.5 1.5 0
34.5 1.5 0
35.5 1.5 0
36.5 1.5 0
37.5 1.5 0
38.5 1.5 0
39.5 1.5 0
40.5 1.5 0
41.5 1.5 0
42.5 1.5 0
43.5 1.5 0
44.5 1.5 0
45.5 1.5 0
46.5 1.5 0
47.5 1.5 0
48.5 1.5 0
49.5 1.5 0
0 2 0
1 2 0
2 2 0
3 2 0
4 2 0
5 2 0
6 2 0
7 2 0
8 2 0
9 2 0
10 2 0
11 2 0
12 2 0
13 2 0
14 2 0
15 2 0
16 2 0
17 2 0
18 2 0
19 2 0
20 2 0
21 2 0
22 2 0
23 2 0
24 2 0
25 2 0
26 2 0
27 2 0
28 2 0
29 2 0
30 2 0
31 2 0
32 2 0
33 2 0
34 2 0
35 2 0
36 2 0
37 2 0
38 2 0
39 2 0
40 2 0
41 2 0
42 2 0
43 2 0
44 2 0
45 2 0
46 2 0
47 2 0
48 2 0
49 2 0
50 2 0
0.5 2.5 0
1.5 2.5 0
2.5 2.5 0
3.5 2.5 0
4.5 2.5 0
5.5 2.5 0
6.5 2.5 0
7.5 2.5 0
8.5 2.5 0
9.5 2.5 0
10.5 2.5 0
11.5 2.5 0
12.5 2.5 0
13.5 2.5 0
14.5 2.5 0
15.5 2.5 0
16.5 2.5 0
17.5 2.5 0
18.5 2.5 0
19.5 2.5 0
20.5 2.5 0
21.5 2.5 0
22.5 2.5 0
23.5 2.5 0
24.5 2.5 0
25.5 2.5 0
26.5 2.5 0
27.5 2.5 0
28.5 2.5 0
29.5 2.5 0
30.5 2.5 0
31.5 2.5 0
32.5 2.5 0
33.5 2.5 0
34.5 2.5 0
35.5 2.5 0
36.5 2.5 0
37.5 2.5 0
38.5 2.5 0
39.5 2.5 0
40.5 2.5 0
41.5 2.5 0
42.5 2.5 0
43.5 2.5 0
44.5 2.5 0
45.5 2.5 0
46.5 2.5 0
47.5 2.5 0
48.5 2.5 0
49.5 2.5 0
0 3 0
1 3 0
2 3 0
3 3 0
4 3 0
5 3 0
6 3 0
7 3 0
8 3 0
9 3 0
10 3 0
11 3 0
12 3 0
13 3 0
14 3 0
15 3 0
16 3 0
17 3 0
18 3 0
19 3 0
20 3 0
21 3 0
22 3 0
23 3 0
24 3 0
25 3 0
26 3 0
27 3 0
28 3 0
29 3 0
30 3 0
31 3 0
32 3 0
33 3 0
34 3 0
35 3 0
36 3 0
37 3 0
38 3 0
39 3 0
40 3 0
41 3 0
42 3 0
43 3 0
44 3 0
45 3 0
46 3 0
47 3 0
48 3 0
49 3 0
50 3 0
0.5 3.5 0
1.5 3.5 0
2.5 3.5 0
3.5 3.5 0
4.5 3.5 0
5.5 3.5 0
6.5 3.5 0
7.5 3.5 0
8.5 3.5 0
9.5 3.5 0
10.5 3.5 0
11.5 3.5 0
12.5 3.5 0
13.5 3.5 0
14.5 3.5 0
15.5 3.5 0
16.5 3.5 0
17.5 3.5 0
18.5 3.5 0
19.5 3.5 0
20.5 3.5 0
21.5 3.5 0
22.5 3.5 0
23.5 3.5 0
24.5 3.5 0
25.5 3.5 0
26.5 3.5 0
27.5 3.5 0
28.5 3.5 0
29.5 3.5 0
30.5 3.5 0
31.5 3.5 0
32.5 3.5 0
33.5 3.5 0
34.5 3.5 0
35.5 3.5 0
36.5 3.5 0
37.5 3.5 0
38.5 3.5 0
39.5 3.5 0
40.5 3.5 0
41.5 3.5 0
42.5 3.5 0
43.5 3.5 0
44.5 3.5 0
45.5 3.5 0
46.5 3.5 0
47.5 3.5 0
48.5 3.5 0
49.5 3.5 0
0 4 0
1 4 0
2 4 0
3 4 0
4 4 0
5 4 0
6 4 0
7 4 0
8 4 0
9 4 0
10 4 0
11 4 0
12 4 0
13 4 0
14 4 0
15 4 0
16 4 0
17 4 0
18 4 0
19 4 0
20 4 0
21 4 0
22 4 0
23 4 0
24 4 0
25 4 0
26 4 0
27 4 0
28 4 0
29 4 0
30 4 0
31 4 0
32 4 0
33 4 0
34 4 0
35 4 0
36 4 0
37 4 0
38 4 0
39 4 0
40 4 0
41 4 0
42 4 0
43 4 0
44 4 0
45 4 0
46 4 0
47 4 0
48 4 0
49 4 0
50 4 0
0.5 4.5 0
1.5 4.5 0
2.5 4.5 0
3.5 4.5 0
4.5 4.5 0
5.5 4.5 0
6.5 4.5 0
7.5 4.5 0
8.5 4.5 0
9.5 4.5 0
10.5 4.5 0
11.5 4.5 0
12.5 4.5 0
13.5 4.5 0
14.5 4.5 0
15.5 4.5 0
16.5 4.5 0
17.5 4.5 0
18.5 4.5 0
19.5 4.5 0
20.5 4.5 0
21.5 4.5 0
22.5 4.5 0
23.5 4.5 0
24.5 4.5 0
25.5 4.5 0
26.5 4.5 0
27.5 4.5 0
28.5 4.5 0
29.5 4.5 0
30.5 4.5 0
31.5 4.5 0
32.5 4.5 0
33.5 4.5 0
34.5 4.5 0
35.5 4.5 0
36.5 4.5 0
37.5 4.5 0
38.5 4.5 0
39.5 4.5 0
40.5 4.5 0
41.5 4.5 0
42.5 4.5 0
43.5 4.5 0
44.5 4.5 0
45.5 4.5 0
46.5 4.5 0
47.5 4.5 0
48.5 4.5 0
49.5 4.5 0
0 5 0
1 5 0
2 5 0
3 5 0
4 5 0
5 5 0
6 5 0
7 5 0
8 5 0
9 5 0
10 5 0
11 5 0
12 5 0
13 5 0
14 5 0
15 5 0
16 5 0
17 5 0
18 5 0
19 5 0
20 5 0
21 5 0
22 5 0
23 5 0
24 5 0
25 5 0
26 5 0
27 5 0
28 5 0
29 5 0
30 5 0
31 5 0
32 5 0
33 5 0
34 5 0
35 5 0
36 5 0
37 5 0
38 5 0
39 5 0
40 5 0
41 5 0
42 5 0
43 5 0
44 5 0
45 5 0
46 5 0
47 5 0
48 5 0
49 5 0
50 5 0
0.5 5.5 0
1.5 5.5 0
2.5 5.5 0
3.5 5.5 0
4.5 5.5 0
5.5 5.5 0
6.5 5.5 0
7.5 5.5 0
8.5 5.5 0
9.5 5.5 0
10.5 5.5 0
11.5 5.5 0
12.5 5.5 0
13.5 5.5 0
14.5 5.5 0
15.5 5.5 0
16.5 5.5 0
17.5 5.5 0
18.5 5.5 0
19.5 5.5 0
20.5 5.5 0
21.5 5.5 0
22.5 5.5 0
23.5 5.5 0
24.5 5.5 0
25.5 5.5 0
26.5 5.5 0
27.5 5.5 0
28.5 5.5 0
29.5 5.5 0
30.5 5.5 0
31.5 5.5 0
32.5 5.5 0
33.5 5.5 0
34.5 5.5 0
35.5 5.5 0
36.5 5.5 0
37.5 5.5 0
38.5 5.5 0
39.5 5.5 0
40.5 5.5 0
41.5 5.5 0
42.5 5.5 0
43.5 5.5 0
44.5 5.5 0
45.5 5.5 0
46.5 5.5 0
47.5 5.5 0
48.5 5.5 0
49.5 5.5 0
0 6 0
1 6 0
2 6 0
3 6 0
4 6 0
5 6 0
6 6 0
7 6 0
8 6 0
9 6 0
10 6 0
11 6 0
12 6 0
13 6 0
14 6 0
15 6 0
16 6 0
17 6 0
18 6 0
19 6 0
20 6 0
21 6 0
22 6 0
23 6 0
24 6 0
25 6 0
26 6 0
27 6 0
28 6 0
29 6 0
30 6 0
31 6 0
32 6 0
33 6 0
34 6 0
35 6 0
36 6 0
37 6 0
38 6 0
39 6 0
40 6 0
41 6 0
42 6 0
43 6 0
44 6 0
45 6 0
46 6 0
47 6 0
48 6 0
49 6 0
50 6 0
0.5 6.5 0
1.5 6.5 0
2.5 6.5 0
3.5 6.5 0
4.5 6.5 0
5.5 6.5 0
6.5 6.5 0
7.5 6.5 0
8.5 6.5 0
9.5 6.5 0
10.5 6.5 0
11.5 6.5 0
12.5 6.5 0
13.5 6.5 0
14.5 6.5 0
15.5 6.5 0
16.5 6.5 0
17.5 6.5 0
18.5 6.5 0
19.5 6.5 0
20.5 6.5 0
21.5 6.5 0
22.5 6.5 0
23.5 6.5 0
24.5 6.5 0
25.5 6.5 0
26.5 6.5 0
27.5 6.5 0
28.5 6.5 0
29.5 6.5 0
30.5 6.5 0
31.5 6.5 0
32.5 6.5 0
33.5 6.5 0
34.5 6.5 0
35.5 6.5 0
36.5 6.5 0
37.5 6.5 0
38.5 6.5 0
39.5 6.5 0
40.5 6.5 0
41.5 6.5 0
42.5 6.5 0
43.5 6.5 0
44.5 6.5 0
45.5 6.5 0
46.5 6.5 0
47.5 6.5 0
48.5 6.5 0
49.5 6.5 0
0 7 0
1 7 0
2 7 0
3 7 0
4 7 0
5 7 0
6 7 0
7 7 0
8 7 0
9 7 0
10 7 0
11 7 0
12 7 0
13 7 0
14 7 0
15 7 0
16 7 0
17 7 0
18 7 0
19 7 0
20 7 0
21 7 0
22 7 0
23 7 0
24 7 0
25 7 0
26 7 0
27 7 0
28 7 0
29 7 0
30 7 0
31 7 0
32 7 0
33 7 0
34 7 0
35 7 0
36 7 0
37 7 0
38 7 0
39 7 0
40 7 0
41 7 0
42 7 0
43 7 0
44 7 0
45 7 0
46 7 0
47 7 0
48 7 0
49 7 0
50 7 0
0.5 7.5 0
1.5 7.5 0
2.5 7.5 0
3.5 7.5 0
4.5 7.5 0
5.5 7.5 0
6.5 7.5 0
7.5 7.5 0
8.5 7.5 0
9.5 7.5 0
10.5 7.5 0
11.5 7.5 0
12.5 7.5 0
13.5 7.5 0
14.5 7.5 0
15.5 7.5 0
16.5 7.5 0
17.5 7.5 0
18.5 7.5 0
19.5 7.5 0
20.5 7.5 0
21.5 7.5 0
22.5 7.5 0
23.5 7.5 0
24.5 7.5 0
25.5 7.5 0
26.5 7.5 0
27.5 7.5 0
28.5 7.5 0
29.5 7.5 0
30.5 7.5 0
31.5 7.5 0
32.5 7.5 0
33.5 7.5 0
34.5 7.5 0
35.5 7.5 0
36.5 7.5 0
37.5 7.5 0
38.5 7.5 0
39.5 7.5 0
40.5 7.5 0
41.5 7.5 0
42.5 7.5 0
43.5 7.5 0
44.5 7.5 0
45.5 7.5 0
46.5 7.5 0
47.5 7.5 0
48.5 7.5 0
49.5 7.5 0
0 8 0
1 8 0
2 8 0
3 8 0
4 8 0
5 8 0
6 8 0
7 8 0
8 8 0
9 8 0
10 8 0
11 8 0
12 8 0
13 8 0
14 8 0
15 8 0
16 8 0
17 8 0
18 8 0
19 8 0
20 8 0
21 8 0
22 8 0
23 8 0
24 8 0
25 8 0
26 8 0
27 8 0
28 8 0
29 8 0
30 8 0
31 8 0
32 8 0
33 8 0
34 8 0
35 8 0
36 8 0
37 8 0
38 8 0
39 8 0
40 8 0
41 8 0
42 8 0
43 8 0
44 8 0
45 8 0
46 8 0
47 8 0
48 8 0
49 8 0
50 8 0
0.5 8.5 0
1.5 8.5 0
2.5 8.5 0
3.5 8.5 0
4.5 8.5 0
5.5 8.5 0
6.5 8.5 0
7.5 8.5 0
8.5 8.5 0
9.5 8.5 0
10.5 8.5 0
11.5 8.5 0
12.5 8.5 0
13.5 8.5 0
14.5 8.5 0
15.5 8.5 0
16.5 8.5 0
17.5 8.5 0
18.5 8.5 0
19.5 8.5 0
20.5 8.5 0
21.5 8.5 0
22.5 8.5 0
23.5 8.5 0
24.5 8.5 0
25.5 8.5 0
26.5 8.5 0
27.5 8.5 0
28.5 8.5 0
29.5 8.5 0
30.5 8.5 0
31.5 8.5 0
32.5 8.5 0
33.5 8.5 0
34.5 8.5 0
35.5 8.5 0
36.5 8.5 0
37.5 8.5 0
38.5 8.5 0
39.5 8.5 0
40.5 8.5 0
41.5 8.5 0
42.5 8.5 0
43.5 8.5 0
44.5 8.5 0
45.5 8.5 0
46.5 8.5 0
47.5 8.5 0
48.5 8.5 0
49.5 8.5 0
0 9 0
1 9 0
2 9 0
3 9 0
4 9 0
5 9 0
6 9 0
7 9 0
8 9 0
9 9 0
10 9 0
11 9 0
12 9 0
13 9 0
14 9 0
15 9 0
16 9 0
17 9 0
18 9 0
19 9 0
20 9 0
21 9 0
22 9 0
23 9 0
24 9 0
25 9 0
26 9 0
27 9 0
28 9 0
29 9 0
30 9 0
31 9 0
32 9 0
33 9 0
34 9 0
35 9 0
36 9 0
37 9 0
38 9 0
39 9 0
40 9 0
41 9 0
42 9 0
43 9 0
44 9 0
45 9 0
46 9 0
47 9 0
48 9 0
49 9 0
50 9 0
0.5 9.5 0
1.5 9.5 0
2.5 9.5 0
3.5 9.5 0
4.5 9.5 0
5.5 9.5 0
6.5 9.5 0
7.5 9.5 0
8.5 9.5 0
9.5 9.5 0
10.5 9.5 0
11.5 9.5 0
12.5 9.5 0
13.5 9.5 0
14.5 9.5 0
15.5 9.5 0
16.5 9.5 0
17.5 9.5 0
18.5 9.5 0
19.5 9.5 0
20.5 9.5 0
21.5 9.5 0
22.5 9.5 0
23.5 9.5 0
24.5 9.5 0
25.5 9.5 0
26.5 9.5 0
27.5 9.5 0
28.5 9.5 0
29.5 9.5 0
30.5 9.5 0
31.5 9.5 0
32.5 9.5 0
33.5 9.5 0
34.5 9.5 0
35.5 9.5 0
36.5 9.5 0
37.5 9.5 0
38.5 9.5 0
39.5 9.5 0
40.5 9.5 0
41.5 9.5 0
42.5 9.5 0
43.5 9.5 0
44.5 9.5 0
45.5 9.5 0
46.5 9.5 0
47.5 9.5 0
48.5 9.5 0
49.5 9.5 0
0 10 0
1 10 0
2 10 0
3 10 0
4 10 0
5 10 0
6 10 0
7 10 0
8 10 0
9 10 0
10 10 0
11 10 0
12 10 0
13 10 0
14 10 0
15 10 0
16 10 0
17 10 0
18 10 0
19 10 0
20 10 0
21 10 0
22 10 0
23 10 0
24 10 0
25 10 0
26 10 0
27 10 0
28 10 0
29 10 0
30 10 0
31 10 0
32 10 0
33 10 0
34 10 0
35 10 0
36 10 0
37 10 0
38 10 0
39 10 0
40 10 0
41 10 0
42 10 0
43 10 0
44 10 0
45 10 0
46 10 0
47 10 0
48 10 0
49 10 0
50 10 0
0.5 10.5 0
1.5 10.5 0
2.5 10.5 0
3.5 10.5 0
4.5 10.5 0
5.5 10.5 0
6.5 10.5 0
7.5 10.5 0
8.5 10.5 0
9.5 10.5 0
10.5 10.5 0
11.5 10.5 0
12.5 10.5 0
13.5 10.5 0
14.5 10.5 0
15.5 10.5 0
16.5 10.5 0
17.5 10.5 0
18.5 10.5 0
19.5 10.5 0
20.5 10.5 0
21.5 10.5 0
22.5 10.5 0
23.5 10.5 0
24.5 10.5 0
25.5 10.5 0
26.5 10.5 0
27.5 10.5 0
28.5 10.5 0
29.5 10.5 0
30.5 10.5 0
31.5 10.5 0
32.5 10.5 0
33.5 10.5 0
34.5 10.5 0
35.5 10.5 0
36.5 10.5 0
37.5 10.5 0
38.5 10.5 0
39.5 10.5 0
40.5 10.5 0
41.5 10.5 0
42.5 10.5 0
43.5 10.5 0
44.5 10.5 0
45.5 10.5 0
46.5 10.5 0
47.5 10.5 0
48.5 10.5 0
49.5 10.5 0
0 11 0
1 11 0
2 11 0
3 11 0
[...]
POINT_DATA 5101
VECTORS velocity float
-0.426507 -0.426507 0.797611
-0.289369 -0.458034 0.840518
-0.152012 -0.551243 0.82038
-0.016466 -0.672813 0.739629
0.111946 -0.790318 0.602382
0.222242 -0.88105 0.417563
0.303178 -0.931555 0.200718
0.346043 -0.937793 -0.0282698
0.346323 -0.904516 -0.24882
0.304607 -0.843043 -0.443275
0.226451 -0.767734 -0.59942
0.121144 -0.692325 -0.711344
-0.00022879 -0.627262 -0.778809
-0.126755 -0.578561 -0.80573
-0.249183 -0.548039 -0.798474
-0.360702 -0.534364 -0.764427
-0.457111 -0.534326 -0.711017
-0.536594 -0.543929 -0.645142
-0.599284 -0.559171 -0.572875
-0.64675 -0.57653 -0.499327
-0.681444 -0.593253 -0.428586
-0.706169 -0.607495 -0.363697
-0.723652 -0.618287 -0.306675
-0.736269 -0.625328 -0.258599
-0.745952 -0.628692 -0.219778
-0.754215 -0.628547 -0.189967
-0.762244 -0.62495 -0.168583
-0.770998 -0.61772 -0.154869
-0.781299 -0.606357 -0.147996
-0.793898 -0.589986 -0.147116
-0.809478 -0.567302 -0.151374
-0.828575 -0.536561 -0.159895
-0.851342 -0.495688 -0.171784
-0.877166 -0.44265 -0.186119
-0.904247 -0.376232 -0.201956
-0.929535 -0.29714 -0.218341
-0.94944 -0.208867 -0.234387
-0.961253 -0.117442 -0.2494
-0.964341 -0.0297166 -0.26299
-0.960196 0.0488097 -0.275031
-0.951425 0.115313 -0.28547
-0.940575 0.169723 -0.29413
-0.92939 0.214134 -0.300634
-0.918536 0.252094 -0.304533
-0.907511 0.287935 -0.305806
-0.894472 0.325988 -0.306027
-0.875758 0.369714 -0.310419
-0.845163 0.42156 -0.328614
-0.797114 0.486986 -0.357006
-0.749621 0.591443 -0.29709
-0.683728 0.683728 -0.255014
-0.372328 -0.372328 0.850143
-0.223713 -0.432871 0.873255
-0.0688662 -0.542014 0.837543
0.0802325 -0.665129 0.742406
0.212038 -0.77599 0.594036
0.31631 -0.858681 0.403256
0.384662 -0.904372 0.184785
0.410943 -0.910627 -0.0434075
0.392555 -0.881663 -0.26186
0.331885 -0.827516 -0.452846
0.236408 -0.761334 -0.603723
0.117101 -0.69579 -0.708635
-0.0140138 -0.640271 -0.768021
-0.146034 -0.599792 -0.786717
-0.270435 -0.57541 -0.77186
-0.381463 -0.565408 -0.7313
-0.475989 -0.566563 -0.672637
-0.553095 -0.575145 -0.60274
-0.613585 -0.587551 -0.527539
-0.659481 -0.600674 -0.451968
-0.693521 -0.612096 -0.379956
-0.718687 -0.620174 -0.314441
-0.737827 -0.623987 -0.257394
-0.753423 -0.62313 -0.209911
-0.767508 -0.61743 -0.172369
-0.781682 -0.606673 -0.14464
-0.797159 -0.59041 -0.12631
-0.814797 -0.567849 -0.116848
-0.835069 -0.537837 -0.115721
-0.857945 -0.498942 -0.122425
-0.882691 -0.449708 -0.136449
-0.907674 -0.389143 -0.157151
-0.930338 -0.317441 -0.183582
-0.947649 -0.23668 -0.214344
-0.957028 -0.150967 -0.247602
-0.957363 -0.0656486 -0.281328
-0.949428 0.0141344 -0.313668
-0.935427 0.0847048 -0.343222
-0.91811 0.144286 -0.369128
-0.899998 0.192731 -0.390971
-0.882973 0.231025 -0.408639
-0.868146 0.260904 -0.422198
-0.85583 0.284718 -0.431846
-0.845493 0.305469 -0.437985
-0.835512 0.326939 -0.441622
-0.822437 0.353761 -0.445478
-0.799335 0.391436 -0.455897
-0.754402 0.446513 -0.481148
-0.685843 0.528602 -0.5002
-0.649922 0.649922 -0.393959
-0.458034 -0.289369 0.840518
-0.32402 -0.32402 0.888832
-0.160035 -0.411201 0.897387
0.0114888 -0.529049 0.848513
0.168828 -0.64813 0.74258
0.299806 -0.750946 0.588385
0.397268 -0.827562 0.396635
0.455451 -0.871915 0.179801
0.469549 -0.88169 -0.0463254
0.437719 -0.859755 -0.263105
0.363289 -0.814458 -0.452415
0.255 -0.757509 -0.600962
0.124917 -0.700443 -0.702691
-0.0144672 -0.651765 -0.758283
-0.1524 -0.615906 -0.772938
-0.280851 -0.593708 -0.754078
-0.394639 -0.583576 -0.709717
-0.491132 -0.582634 -0.647555
-0.569812 -0.587583 -0.574509
-0.631803 -0.595219 -0.496527
-0.679389 -0.602709 -0.418536
-0.715534 -0.607749 -0.34446
-0.743415 -0.608653 -0.277264
-0.766045 -0.60433 -0.218999
-0.786034 -0.594094 -0.17089
-0.805478 -0.577395 -0.133495
-0.825915 -0.553563 -0.106919
-0.848278 -0.52167 -0.0910217
-0.872792 -0.480533 -0.085571
-0.898819 -0.428919 -0.0902928
-0.924698 -0.365995 -0.104794
-0.947766 -0.291999 -0.128359
-0.964803 -0.208927 -0.159705
-0.972967 -0.120755 -0.196861
-0.970875 -0.0327821 -0.237335
-0.959135 0.0497641 -0.27854
-0.93999 0.123046 -0.318243
-0.916416 0.185166 -0.354818
-0.891278 0.235902 -0.387264
-0.866873 0.276097 -0.415092
-0.844795 0.30711 -0.438184
-0.825948 0.33052 -0.456691
-0.810578 0.348066 -0.470972
-0.798236 0.361812 -0.481573
-0.787618 0.374477 -0.489311
-0.776075 0.389838 -0.495716
-0.758381 0.413038 -0.50424
-0.724527 0.450391 -0.521736
-0.661824 0.507459 -0.551792
-0.590788 0.590788 -0.54949
-0.591443 0.749621 -0.29709
-0.432871 -0.223713 0.873255
-0.281436 -0.281436 0.917381
-0.100462 -0.386975 0.916601
0.0811309 -0.507331 0.857924
0.240396 -0.622235 0.745006
0.36804 -0.720567 0.587647
0.459287 -0.795409 0.395448
0.509467 -0.841568 0.179461
0.514274 -0.856428 -0.0453034
0.472501 -0.841999 -0.260348
0.388389 -0.805505 -0.447566
0.271446 -0.757387 -0.593871
0.133998 -0.707948 -0.693437
-0.0116188 -0.664794 -0.746936
-0.154884 -0.631979 -0.759351
-0.287862 -0.610453 -0.737891
-0.405343 -0.599029 -0.690551
-0.504665 -0.595351 -0.625196
-0.585371 -0.596607 -0.549001
-0.64876 -0.599962 -0.468141
-0.697376 -0.602795 -0.387692
-0.73447 -0.60285 -0.31165
-0.763479 -0.598366 -0.243019
-0.787627 -0.588072 -0.183888
-0.809674 -0.571011 -0.13555
-0.831771 -0.546278 -0.098675
-0.855358 -0.512792 -0.0735345
-0.881024 -0.469226 -0.0601968
-0.908307 -0.414173 -0.0586358
-0.935491 -0.346612 -0.06868
-0.959598 -0.266665 -0.089783
-0.976886 -0.17643 -0.120691
-0.98397 -0.0803113 -0.159224
-0.979172 0.0156703 -0.202425
-0.963228 0.10549 -0.24711
-0.938874 0.184717 -0.290508
-0.909709 0.251202 -0.330647
-0.879126 0.304787 -0.36639
-0.84976 0.346561 -0.397245
-0.823372 0.378155 -0.423152
-0.800952 0.401318 -0.44432
-0.782822 0.417762 -0.461155
-0.768665 0.42928 -0.474208
-0.757426 0.438075 -0.484145
-0.747009 0.447238 -0.491889
-0.733479 0.461184 -0.499317
-0.709299 0.485609 -0.510958
-0.661514 0.525696 -0.534829
-0.583028 0.583028 -0.565824
-0.528602 0.685843 -0.5002
-0.551243 -0.152012 0.82038
-0.411201 -0.160035 0.897387
-0.240594 -0.240594 0.940335
-0.0463037 -0.355176 0.933652
0.138738 -0.475799 0.868543
0.296247 -0.589157 0.751752
0.419841 -0.687505 0.592512
0.505637 -0.764814 0.399239
0.548983 -0.815649 0.182577
0.545788 -0.836865 -0.0420978
0.495667 -0.829956 -0.255903
0.403836 -0.801522 -0.440998
0.280215 -0.761084 -0.585004
0.136887 -0.717923 -0.682531
-0.0142071 -0.678915 -0.73408
-0.162629 -0.647897 -0.744165
-0.30017 -0.626045 -0.719698
-0.421243 -0.612634 -0.668756
-0.522966 -0.605818 -0.599575
-0.604922 -0.603236 -0.519784
-0.668666 -0.602381 -0.435916
-0.717107 -0.600816 -0.35324
-0.753863 -0.596339 -0.275808
-0.782675 -0.587142 -0.206601
-0.806982 -0.571819 -0.14766
-0.829662 -0.549192 -0.100243
-0.852877 -0.518045 -0.0650347
-0.877913 -0.476941 -0.0423734
-0.904967 -0.424243 -0.0324407
-0.932882 -0.358447 -0.0353019
-0.958982 -0.27889 -0.0507396
-0.979325 -0.186698 -0.0778873
-0.989695 -0.0855306 -0.114839
-0.987172 0.0186072 -0.15857
-0.971444 0.118777 -0.205396
-0.944928 0.209064 -0.2518
-0.911678 0.2859 -0.295134
-0.87595 0.348213 -0.333855
-0.841216 0.396742 -0.367356
-0.809842 0.433169 -0.395626
-0.783172 0.459456 -0.418977
-0.76173 0.477505 -0.437901
-0.745343 0.48915 -0.452985
-0.733141 0.496434 -0.46482
-0.723371 0.502081 -0.473972
-0.712909 0.509998 -0.481314
-0.696075 0.52541 -0.489311
-0.662442 0.553715 -0.504549
-0.597205 0.597205 -0.535436
-0.507459 0.661824 -0.551792
-0.486986 0.797114 -0.357006
-0.542014 -0.0688662 0.837543
-0.386975 -0.100462 0.916601
-0.197363 -0.197363 0.960258
0.00410924 -0.315597 0.948884
0.188285 -0.436346 0.879858
0.342395 -0.550656 0.761277
0.461867 -0.652327 0.600957
0.542671 -0.735151 0.406278
0.57965 -0.792868 0.18806
0.568862 -0.821584 -0.0373599
0.51084 -0.822383 -0.250457
0.41171 -0.8015 -0.433696
0.281595 -0.767827 -0.575453
0.132229 -0.729877 -0.670667
-0.0246889 -0.693992 -0.71956
-0.178494 -0.663896 -0.726211
-0.320441 -0.641014 -0.697437
-0.444474 -0.625064 -0.641668
-0.54757 -0.614678 -0.567748
-0.62952 -0.607916 -0.483883
-0.692312 -0.602581 -0.39699
-0.739353 -0.596414 -0.312487
-0.7747 -0.587274 -0.234411
-0.802414 -0.57332 -0.165635
-0.826122 -0.553031 -0.108068
-0.848762 -0.525026 -0.0628528
-0.872409 -0.487817 -0.0306075
-0.898075 -0.439687 -0.0116621
-0.925444 -0.378834 -0.00621229
-0.952602 -0.303884 -0.0142829
-0.976022 -0.214768 -0.0354483
-0.991161 -0.113684 -0.068382
-0.99386 -0.00553947 -0.110507
-0.982058 0.102762 -0.158122
-0.956784 0.204111 -0.207133
-0.921727 0.293085 -0.254008
-0.881766 0.366902 -0.29643
-0.841467 0.425223 -0.333344
-0.804245 0.469304 -0.364614
-0.772208 0.501112 -0.390617
-0.74635 0.522721 -0.411975
-0.726772 0.536117 -0.429395
-0.712781 0.543357 -0.443516
-0.702831 0.547009 -0.454763
-0.694262 0.550677 -0.463417
-0.682581 0.559273 -0.470422
-0.659806 0.578401 -0.479697
-0.612045 0.612045 -0.500802
-0.525696 0.661514 -0.534829
-0.446513 0.754402 -0.481148
-0.672813 -0.016466 0.739629
-0.529049 0.0114888 0.848513
-0.355176 -0.0463037 0.933652
-0.15157 -0.15157 0.976756
0.0517679 -0.270878 0.961221
0.232702 -0.392097 0.890005
0.382794 -0.508935 0.771008
0.498259 -0.615848 0.610303
0.574355 -0.70599 0.41436
0.605197 -0.771966 0.194435
0.586965 -0.808981 -0.0319705
0.52107 -0.817709 -0.244616
0.414398 -0.804126 -0.42621
0.277172 -0.776649 -0.565679
0.120922 -0.743191 -0.658062
-0.0425543 -0.709679 -0.703239
-0.202027 -0.67979 -0.705033
-0.348054 -0.655218 -0.670484
-0.474174 -0.636126 -0.60869
-0.577428 -0.621633 -0.529292
-0.658056 -0.610222 -0.441125
-0.718668 -0.600009 -0.351434
-0.763283 -0.588905 -0.265689
-0.796442 -0.57481 -0.18781
-0.822521 -0.55583 -0.120471
-0.845283 -0.530305 -0.0653724
-0.86764 -0.496639 -0.0234802
-0.89145 -0.453095 0.0047118
-0.917289 -0.39777 0.0189505
-0.944171 -0.328901 0.0191221
-0.969373 -0.245535 0.00537418
-0.988685 -0.148455 -0.0215208
-0.997375 -0.0409577 -0.0597059
-0.991817 0.0711269 -0.10602
-0.971061 0.180545 -0.156343
-0.937383 0.280485 -0.206498
-0.895416 0.366214 -0.253214
-0.850514 0.435696 -0.294608
-0.807325 0.489165 -0.330066
-0.769121 0.528194 -0.359811
-0.737755 0.554851 -0.384524
-0.713867 0.571243 -0.405063
-0.697065 0.57951 -0.422218
-0.685985 0.582176 -0.436457
-0.678202 0.582679 -0.447804
-0.669888 0.585738 -0.456247
-0.65479 0.597067 -0.463423
-0.621857 0.621857 -0.476011
-0.553715 0.662442 -0.504549
-0.450391 0.724527 -0.521736
-0.42156 0.845163 -0.328614
-0.665129 0.0802325 0.742406
-0.507331 0.0811309 0.857924
-0.315597 0.00410924 0.948884
-0.104516 -0.104516 0.989016
0.0971071 -0.22373 0.969802
0.273661 -0.34569 0.897557
0.419594 -0.465852 0.779052
0.531209 -0.578938 0.618585
0.602777 -0.677295 0.421819
0.627601 -0.752269 0.20052
0.601961 -0.798081 -0.0266451
0.528041 -0.814964 -0.238761
0.413323 -0.808628 -0.418671
0.268128 -0.787044 -0.55558
0.10403 -0.75758 -0.644399
-0.0666925 -0.725804 -0.684661
-0.231946 -0.69539 -0.680172
-0.381521 -0.66836 -0.638542
-0.508706 -0.645383 -0.569823
-0.610871 -0.626116 -0.484578
-0.688951 -0.609497 -0.392249
-0.746347 -0.593961 -0.300294
-0.787772 -0.577559 -0.214107
-0.818263 -0.55819 -0.137369
-0.842468 -0.53385 -0.0724664
-0.864215 -0.502692 -0.0208205
-0.886262 -0.462878 0.0168354
-0.910091 -0.412456 0.0401859
-0.935655 -0.349481 0.0491256
-0.961168 -0.272479 0.0437172
-0.983143 -0.181206 0.024389
-0.996965 -0.0774667 -0.00766702
-0.99815 0.0344331 -0.0501025
-0.983973 0.148069 -0.0993625
-0.954719 0.256216 -0.151215
-0.91377 0.352617 -0.201706
-0.866443 0.433333 -0.247992
-0.818315 0.497051 -0.28862
-0.773971 0.544463 -0.32331
-0.73648 0.577318 -0.352564
-0.707378 0.597711 -0.377303
-0.686821 0.607852 -0.398489
-0.673706 0.610281 -0.416747
-0.66574 0.608357 -0.432079
-0.659402 0.6067 -0.443964
-0.649484 0.611098 -0.452471
-0.627457 0.627457 -0.461079
-0.578401 0.659806 -0.479697
-0.485609 0.709299 -0.510958
-0.391436 0.799335 -0.455897
-0.790318 0.111946 0.602382
-0.64813 0.168828 0.74258
-0.475799 0.138738 0.868543
-0.270878 0.0517679 0.961221
-0.0575331 -0.0575331 0.996684
0.140323 -0.176113 0.974317
0.312088 -0.298948 0.901793
0.453946 -0.422742 0.784361
0.561856 -0.542328 0.624659
0.628986 -0.649227 0.427645
0.647824 -0.733525 0.205585
0.614727 -0.788438 -0.0218088
0.532529 -0.813703 -0.233027
0.409181 -0.814678 -0.410939
0.255158 -0.798821 -0.544775
0.0823588 -0.772923 -0.629132
-0.0960957 -0.742204 -0.663249
-0.267006 -0.710403 -0.651179
-0.419402 -0.679976 -0.601444
-0.546533 -0.652213 -0.525281
-0.646389 -0.627394 -0.434233
-0.72084 -0.604956 -0.338256
-0.774211 -0.583641 -0.24487
-0.811945 -0.561596 -0.159233
-0.839552 -0.536642 -0.084664
-0.861876 -0.50659 -0.0231711
-0.882687 -0.46934 0.024172
-0.904431 -0.422805 0.0569242
-0.928017 -0.364909 0.0750086
-0.952615 -0.293864 0.078536
-0.975614 -0.208752 0.0678205
-0.992947 -0.110243 0.0436228
-0.999971 -0.00117948 0.00752918
-0.992841 0.113319 -0.0377683
-0.969971 0.226515 -0.0885885
-0.932896 0.331443 -0.140896
-0.88595 0.422545 -0.191174
-0.834915 0.496719 -0.237036
-0.785439 0.553307 -0.277376
-0.741954 0.593329 -0.312193
-0.707221 0.618632 -0.342246
-0.682255 0.631409 -0.368579
-0.666405 0.634227 -0.391996
-0.657511 0.63043 -0.412599
-0.652117 0.62462 -0.429643
-0.645531 0.622686 -0.442213
-0.630995 0.630995 -0.45132
-0.597067 0.65479 -0.463423
-0.52541 0.696075 -0.489311
-0.413038 0.758381 -0.50424
-0.369714 0.875758 -0.310419
-0.77599 0.212038 0.594036
-0.622235 0.240396 0.745006
-0.436346 0.188285 0.879858
-0.22373 0.0971071 0.969802
-0.0115294 -0.0115294 0.999867
0.181591 -0.12923 0.974846
0.348578 -0.252972 0.902496
0.48654 -0.380426 0.786482
0.590852 -0.506494 0.627979
0.653555 -0.62194 0.431344
0.666358 -0.715659 0.209283
0.625684 -0.779878 -0.0176138
0.534901 -0.813752 -0.22735
0.402339 -0.822154 -0.402724
0.238709 -0.811891 -0.532777
0.0565113 -0.789091 -0.611672
-0.129952 -0.758622 -0.638439
-0.306176 -0.724388 -0.617672
-0.460493 -0.689443 -0.559119
-0.586387 -0.655864 -0.475388
-0.682774 -0.624655 -0.378981
-0.752677 -0.595783 -0.280215
-0.801435 -0.568268 -0.186477
-0.835219 -0.540276 -0.10252
-0.859936 -0.509449 -0.0311761
-0.880504 -0.473324 0.0260221
-0.900468 -0.429507 0.0684224
-0.92176 -0.375704 0.095939
-0.944535 -0.30987 0.108787
-0.967107 -0.230614 0.107339
-0.986164 -0.137782 0.0921824
-0.997379 -0.0330162 0.0643789
-0.996468 0.0799233 0.0257836
-0.98052 0.195316 -0.020801
-0.949217 0.306304 -0.0718697
-0.905292 0.406343 -0.123823
-0.853877 0.49066 -0.173629
-0.801078 0.556942 -0.219294
-0.752527 0.605045 -0.260046
-0.71238 0.636222 -0.296203
-0.682815 0.652469 -0.328706
-0.663886 0.656327 -0.358456
-0.653643 0.651157 -0.385675
-0.648551 0.641618 -0.409521
-0.644025 0.633774 -0.428441
-0.634383 0.634383 -0.441721
-0.611098 0.649484 -0.452471
-0.559273 0.682581 -0.470422
-0.461184 0.733479 -0.499317
-0.353761 0.822437 -0.445478
-0.88105 0.222242 0.417563
-0.750946 0.299806 0.588385
-0.589157 0.296247 0.751752
-0.392097 0.232702 0.890005
-0.176113 0.140323 0.974317
0.0330143 0.0330143 0.998909
0.221127 -0.0837013 0.971647
0.383563 -0.208321 0.899712
0.517836 -0.339312 0.785311
0.618607 -0.471665 0.628376
0.67683 -0.595498 0.432763
0.683496 -0.698631 0.211536
0.635078 -0.772321 -0.0140251
0.53538 -0.815037 -0.221546
0.393038 -0.830988 -0.393675
0.219094 -0.826155 -0.519101
0.0269278 -0.805878 -0.591469
-0.167644 -0.774671 -0.609738
-0.348642 -0.736751 -0.57935
-0.50383 -0.696006 -0.511596
-0.627257 -0.655496 -0.420563
-0.719089 -0.617054 -0.319616
-0.783691 -0.581183 -0.219214
-0.827458 -0.54712 -0.126385
-0.857228 -0.51294 -0.0453001
-0.879178 -0.475993 0.0218303
-0.898124 -0.433462 0.0740481
-0.917171 -0.382664 0.111201
-0.937535 -0.321211 0.133608
-0.958509 -0.247295 0.141796
-0.977629 -0.16012 0.136391
-0.991152 -0.0603762 0.118204
-0.994853 0.0493956 0.0884759
-0.985123 0.164678 0.0491255
-0.9602 0.279301 0.00277379
-0.921089 0.386444 -0.0475023
-0.87165 0.480109 -0.0985971
-0.817712 0.556301 -0.147909
-0.765645 0.613353 -0.193871
-0.720939 0.651514 -0.23617
-0.687142 0.672287 -0.275438
-0.665268 0.678038 -0.312543
-0.653714 0.672106 -0.347753
-0.648764 0.659255 -0.380115
-0.645602 0.645833 -0.407551
-0.639042 0.639042 -0.428077
-0.622686 0.645531 -0.442213
-0.585738 0.669888 -0.456247
-0.509998 0.712909 -0.481314
-0.389838 0.776075 -0.495716
-0.325988 0.894472 -0.306027
-0.858681 0.31631 0.403256
-0.720567 0.36804 0.587647
-0.550656 0.342395 0.761277
-0.34569 0.273661 0.897557
-0.12923 0.181591 0.974846
0.0759357 0.0759357 0.994217
0.259173 -0.0397536 0.965012
0.41738 -0.165178 0.893594
0.548152 -0.299505 0.780913
0.645399 -0.437868 0.625885
0.699048 -0.569874 0.431943
0.699443 -0.682391 0.212419
0.643091 -0.765712 -0.010907
0.534132 -0.817505 -0.215382
0.381449 -0.841111 -0.383444
0.196516 -0.841472 -0.503295
-0.00610972 -0.822984 -0.568031
-0.208739 -0.789825 -0.576719
-0.393779 -0.746753 -0.536003
-0.548639 -0.698792 -0.459004
-0.668332 -0.650212 -0.361327
-0.754608 -0.603752 -0.257001
-0.813319 -0.560418 -0.156348
-0.851893 -0.519568 -0.0657873
-0.877715 -0.479051 0.0112812
-0.89704 -0.43581 0.0734067
-0.914349 -0.386641 0.120309
-0.932081 -0.328637 0.152392
-0.950598 -0.259486 0.170381
-0.968368 -0.177794 0.175076
-0.982373 -0.0834451 0.167275
-0.988758 0.022073 0.147888
-0.983716 0.135434 0.118151
-0.964576 0.251457 0.0797619
-0.930883 0.363647 0.0349021
-0.885002 0.465381 -0.0138333
-0.8319 0.551249 -0.0637693
-0.778102 0.617921 -0.112832
-0.730148 0.664262 -0.160124
-0.693009 0.690904 -0.205891
-0.668876 0.699766 -0.250865
-0.65663 0.694007 -0.295282
-0.652284 0.678454 -0.337972
-0.650451 0.659829 -0.376217
-0.645934 0.645934 -0.406863
-0.633774 0.644025 -0.428441
-0.6067 0.659402 -0.443964
-0.550677 0.694262 -0.463417
-0.447238 0.747009 -0.491889
-0.326939 0.835512 -0.441622
-0.931555 0.303178 0.200718
-0.827562 0.397268 0.396635
-0.687505 0.419841 0.592512
-0.508935 0.382794 0.771008
-0.298948 0.312088 0.901793
-0.0837013 0.221127 0.971647
0.117278 0.117278 0.98615
0.295977 0.00263612 0.955191
0.450287 -0.123488 0.884303
0.577709 -0.260914 0.773418
0.671415 -0.404994 0.62063
0.720382 -0.544971 0.429017
0.714363 -0.666865 0.212075
0.64987 -0.760003 -0.00808524
0.531278 -0.821111 -0.208616
0.367661 -0.852448 -0.371696
0.171042 -0.857658 -0.484941
-0.0424874 -0.840012 -0.540902
-0.252971 -0.803418 -0.539004
-0.441104 -0.753508 -0.487497
-0.594273 -0.696826 -0.401588
-0.708934 -0.639076 -0.298319
-0.788746 -0.583941 -0.192076
-0.841125 -0.532836 -0.0927066
-0.874434 -0.485111 -0.00575356
-0.896404 -0.438244 0.0663492
-0.913115 -0.388691 0.123047
-0.928455 -0.332878 0.164812
-0.944029 -0.267796 0.192599
-0.959342 -0.191356 0.207473
-0.972213 -0.102651 0.210389
-0.979346 -0.00221305 0.202181
-0.977063 0.107749 0.183681
-0.962245 0.223153 0.155843
-0.933401 0.338217 0.119882
-0.891535 0.44627 0.0775126
-0.840476 0.540965 0.0309423
-0.786419 0.617439 -0.017746
-0.736584 0.672979 -0.0674016
-0.697293 0.706998 -0.118051
-0.67207 0.720618 -0.170387
-0.660415 0.716504 -0.224664
-0.657934 0.699322 -0.279412
-0.658233 0.676145 -0.330995
-0.655561 0.655561 -0.374805
-0.645833 0.645602 -0.407551
-0.62462 0.652117 -0.429643
-0.582679 0.678202 -0.447804
-0.502081 0.723371 -0.473972
-0.374477 0.787618 -0.489311
-0.287935 0.907511 -0.305806
-0.904372 0.384662 0.184785
-0.795409 0.459287 0.395448
-0.652327 0.461867 0.600957
-0.465852 0.419594 0.779052
-0.252972 0.348578 0.902496
-0.0397536 0.259173 0.965012
0.157199 0.157199 0.974975
0.331765 0.0436303 0.942353
0.48247 -0.083063 0.871965
0.606647 -0.223341 0.762953
0.696777 -0.37287 0.612756
0.740958 -0.520661 0.424138
0.728385 -0.651979 0.210662
0.655521 -0.755157 -0.00537756
0.526871 -0.825834 -0.201011
0.351645 -0.86493 -0.35811
0.14258 -0.874484 -0.463625
-0.0822624 -0.856451 -0.509633
-0.300204 -0.814622 -0.496254
-0.490216 -0.75598 -0.433801
-0.640152 -0.689045 -0.339738
-0.748463 -0.621156 -0.232312
-0.820998 -0.556889 -0.125846
-0.866726 -0.497923 -0.0293237
-0.89474 -0.443447 0.0528659
-0.912846 -0.390444 0.119436
-0.926657 -0.33485 0.170829
-0.939263 -0.272781 0.208269
-0.951388 -0.201227 0.233172
-0.961814 -0.118361 0.246788