# vtk DataFile Version 2.0
tmp/0.000.00-10.000.000.001.007.vtk
ASCII
DATASET UNSTRUCTURED_GRID
POINTS 5000 float
0.75 0.25 0
1.75 0.25 0
2.75 0.25 0
3.75 0.25 0
4.75 0.25 0
5.75 0.25 0
6.75 0.25 0
7.75 0.25 0
8.75 0.25 0
9.75 0.25 0
10.75 0.25 0
11.75 0.25 0
12.75 0.25 0
13.75 0.25 0
14.75 0.25 0
15.75 0.25 0
16.75 0.25 0
17.75 0.25 0
18.75 0.25 0
19.75 0.25 0
20.75 0.25 0
21.75 0.25 0
22.75 0.25 0
23.75 0.25 0
24.75 0.25 0
25.75 0.25 0
26.75 0.25 0
27.75 0.25 0
28.75 0.25 0
29.75 0.25 0
30.75 0.25 0
31.75 0.25 0
32.75 0.25 0
33.75 0.25 0
34.75 0.25 0
35.75 0.25 0
36.75 0.25 0
37.75 0.25 0
38.75 0.25 0
39.75 0.25 0
40.75 0.25 0
41.75 0.25 0
42.75 0.25 0
43.75 0.25 0
44.75 0.25 0
45.75 0.25 0
46.75 0.25 0
47.75 0.25 0
48.75 0.25 0
49.75 0.25 0
0.25 0.75 0
1.25 0.75 0
2.25 0.75 0
3.25 0.75 0
4.25 0.75 0
5.25 0.75 0
6.25 0.75 0
7.25 0.75 0
8.25 0.75 0
9.25 0.75 0
10.25 0.75 0
11.25 0.75 0
12.25 0.75 0
13.25 0.75 0
14.25 0.75 0
15.25 0.75 0
16.25 0.75 0
17.25 0.75 0
18.25 0.75 0
19.25 0.75 0
20.25 0.75 0
21.25 0.75 0
22.25 0.75 0
23.25 0.75 0
24.25 0.75 0
25.25 0.75 0
26.25 0.75 0
27.25 0.75 0
28.25 0.75 0
29.25 0.75 0
30.25 0.75 0
31.25 0.75 0
32.25 0.75 0
33.25 0.75 0
34.25 0.75 0
35.25 0.75 0
36.25 0.75 0
37.25 0.75 0
38.25 0.75 0
39.25 0.75 0
40.25 0.75 0
41.25 0.75 0
42.25 0.75 0
43.25 0.75 0
44.25 0.75 0
45.25 0.75 0
46.25 0.75 0
47.25 0.75 0
48.25 0.75 0
49.25 0.75 0
0.75 1.25 0
1.75 1.25 0
2.75 1.25 0
3.75 1.25 0
4.75 1.25 0
5.75 1.25 0
6.75 1.25 0
7.75 1.25 0
8.75 1.25 0
9.75 1.25 0
10.75 1.25 0
11.75 1.25 0
12.75 1.25 0
13.75 1.25 0
14.75 1.25 0
15.75 1.25 0
16.75 1.25 0
17.75 1.25 0
18.75 1.25 0
19.75 1.25 0
20.75 1.25 0
21.75 1.25 0
22.75 1.25 0
23.75 1.25 0
24.75 1.25 0
25.75 1.25 0
26.75 1.25 0
27.75 1.25 0
28.75 1.25 0
29.75 1.25 0
30.75 1.25 0
31.75 1.25 0
32.75 1.25 0
33.75 1.25 0
34.75 1.25 0
35.75 1.25 0
36.75 1.25 0
37.75 1.25 0
38.75 1.25 0
39.75 1.25 0
40.75 1.25 0
41.75 1.25 0
42.75 1.25 0
43.75 1.25 0
44.75 1.25 0
45.75 1.25 0
46.75 1.25 0
47.75 1.25 0
48.75 1.25 0
49.75 1.25 0
0.25 1.75 0
1.25 1.75 0
2.25 1.75 0
3.25 1.75 0
4.25 1.75 0
5.25 1.75 0
6.25 1.75 0
7.25 1.75 0
8.25 1.75 0
9.25 1.75 0
10.25 1.75 0
11.25 1.75 0
12.25 1.75 0
13.25 1.75 0
14.25 1.75 0
15.25 1.75 0
16.25 1.75 0
17.25 1.75 0
18.25 1.75 0
19.25 1.75 0
20.25 1.75 0
21.25 1.75 0
22.25 1.75 0
23.25 1.75 0
24.25 1.75 0
25.25 1.75 0
26.25 1.75 0
27.25 1.75 0
28.25 1.75 0
29.25 1.75 0
30.25 1.75 0
31.25 1.75 0
32.25 1.75 0
33.25 1.75 0
34.25 1.75 0
35.25 1.75 0
36.25 1.75 0
37.25 1.75 0
38.25 1.75 0
39.25 1.75 0
40.25 1.75 0
41.25 1.75 0
42.25 1.75 0
43.25 1.75 0
44.25 1.75 0
45.25 1.75 0
46.25 1.75 0
47.25 1.75 0
48.25 1.75 0
49.25 1.75 0
0.75 2.25 0
1.75 2.25 0
2.75 2.25 0
3.75 2.25 0
4.75 2.25 0
5.75 2.25 0
6.75 2.25 0
7.75 2.25 0
8.75 2.25 0
9.75 2.25 0
10.75 2.25 0
11.75 2.25 0
12.75 2.25 0
13.75 2.25 0
14.75 2.25 0
15.75 2.25 0
16.75 2.25 0
17.75 2.25 0
18.75 2.25 0
19.75 2.25 0
20.75 2.25 0
21.75 2.25 0
22.75 2.25 0
23.75 2.25 0
24.75 2.25 0
25.75 2.25 0
26.75 2.25 0
27.75 2.25 0
28.75 2.25 0
29.75 2.25 0
30.75 2.25 0
31.75 2.25 0
32.75 2.25 0
33.75 2.25 0
34.75 2.25 0
35.75 2.25 0
36.75 2.25 0
37.75 2.25 0
38.75 2.25 0
39.75 2.25 0
40.75 2.25 0
41.75 2.25 0
42.75 2.25 0
43.75 2.25 0
44.75 2.25 0
45.75 2.25 0
46.75 2.25 0
47.75 2.25 0
48.75 2.25 0
49.75 2.25 0
0.25 2.75 0
1.25 2.75 0
2.25 2.75 0
3.25 2.75 0
4.25 2.75 0
5.25 2.75 0
6.25 2.75 0
7.25 2.75 0
8.25 2.75 0
9.25 2.75 0
10.25 2.75 0
11.25 2.75 0
12.25 2.75 0
13.25 2.75 0
14.25 2.75 0
15.25 2.75 0
16.25 2.75 0
17.25 2.75 0
18.25 2.75 0
19.25 2.75 0
20.25 2.75 0
21.25 2.75 0
22.25 2.75 0
23.25 2.75 0
24.25 2.75 0
25.25 2.75 0
26.25 2.75 0
27.25 2.75 0
28.25 2.75 0
29.25 2.75 0
30.25 2.75 0
31.25 2.75 0
32.25 2.75 0
33.25 2.75 0
34.25 2.75 0
35.25 2.75 0
36.25 2.75 0
37.25 2.75 0
38.25 2.75 0
39.25 2.75 0
40.25 2.75 0
41.25 2.75 0
42.25 2.75 0
43.25 2.75 0
44.25 2.75 0
45.25 2.75 0
46.25 2.75 0
47.25 2.75 0
48.25 2.75 0
49.25 2.75 0
0.75 3.25 0
1.75 3.25 0
2.75 3.25 0
3.75 3.25 0
4.75 3.25 0
5.75 3.25 0
6.75 3.25 0
7.75 3.25 0
8.75 3.25 0
9.75 3.25 0
10.75 3.25 0
11.75 3.25 0
12.75 3.25 0
13.75 3.25 0
14.75 3.25 0
15.75 3.25 0
16.75 3.25 0
17.75 3.25 0
18.75 3.25 0
19.75 3.25 0
20.75 3.25 0
21.75 3.25 0
22.75 3.25 0
23.75 3.25 0
24.75 3.25 0
25.75 3.25 0
26.75 3.25 0
27.75 3.25 0
28.75 3.25 0
29.75 3.25 0
30.75 3.25 0
31.75 3.25 0
32.75 3.25 0
33.75 3.25 0
34.75 3.25 0
35.75 3.25 0
36.75 3.25 0
37.75 3.25 0
38.75 3.25 0
39.75 3.25 0
40.75 3.25 0
41.75 3.25 0
42.75 3.25 0
43.75 3.25 0
44.75 3.25 0
45.75 3.25 0
46.75 3.25 0
47.75 3.25 0
48.75 3.25 0
49.75 3.25 0
0.25 3.75 0
1.25 3.75 0
2.25 3.75 0
3.25 3.75 0
4.25 3.75 0
5.25 3.75 0
6.25 3.75 0
7.25 3.75 0
8.25 3.75 0
9.25 3.75 0
10.25 3.75 0
11.25 3.75 0
12.25 3.75 0
13.25 3.75 0
14.25 3.75 0
15.25 3.75 0
16.25 3.75 0
17.25 3.75 0
18.25 3.75 0
19.25 3.75 0
20.25 3.75 0
21.25 3.75 0
22.25 3.75 0
23.25 3.75 0
24.25 3.75 0
25.25 3.75 0
26.25 3.75 0
27.25 3.75 0
28.25 3.75 0
29.25 3.75 0
30.25 3.75 0
31.25 3.75 0
32.25 3.75 0
33.25 3.75 0
34.25 3.75 0
35.25 3.75 0
36.25 3.75 0
37.25 3.75 0
38.25 3.75 0
39.25 3.75 0
40.25 3.75 0
41.25 3.75 0
42.25 3.75 0
43.25 3.75 0
44.25 3.75 0
45.25 3.75 0
46.25 3.75 0
47.25 3.75 0
48.25 3.75 0
49.25 3.75 0
0.75 4.25 0
1.75 4.25 0
2.75 4.25 0
3.75 4.25 0
4.75 4.25 0
5.75 4.25 0
6.75 4.25 0
7.75 4.25 0
8.75 4.25 0
9.75 4.25 0
10.75 4.25 0
11.75 4.25 0
12.75 4.25 0
13.75 4.25 0
14.75 4.25 0
15.75 4.25 0
16.75 4.25 0
17.75 4.25 0
18.75 4.25 0
19.75 4.25 0
20.75 4.25 0
21.75 4.25 0
22.75 4.25 0
23.75 4.25 0
24.75 4.25 0
25.75 4.25 0
26.75 4.25 0
27.75 4.25 0
28.75 4.25 0
29.75 4.25 0
30.75 4.25 0
31.75 4.25 0
32.75 4.25 0
33.75 4.25 0
34.75 4.25 0
35.75 4.25 0
36.75 4.25 0
37.75 4.25 0
38.75 4.25 0
39.75 4.25 0
40.75 4.25 0
41.75 4.25 0
42.75 4.25 0
43.75 4.25 0
44.75 4.25 0
45.75 4.25 0
46.75 4.25 0
47.75 4.25 0
48.75 4.25 0
49.75 4.25 0
0.25 4.75 0
1.25 4.75 0
2.25 4.75 0
3.25 4.75 0
4.25 4.75 0
5.25 4.75 0
6.25 4.75 0
7.25 4.75 0
8.25 4.75 0
9.25 4.75 0
10.25 4.75 0
11.25 4.75 0
12.25 4.75 0
13.25 4.75 0
14.25 4.75 0
15.25 4.75 0
16.25 4.75 0
17.25 4.75 0
18.25 4.75 0
19.25 4.75 0
20.25 4.75 0
21.25 4.75 0
22.25 4.75 0
23.25 4.75 0
24.25 4.75 0
25.25 4.75 0
26.25 4.75 0
27.25 4.75 0
28.25 4.75 0
29.25 4.75 0
30.25 4.75 0
31.25 4.75 0
32.25 4.75 0
33.25 4.75 0
34.25 4.75 0
35.25 4.75 0
36.25 4.75 0
37.25 4.75 0
38.25 4.75 0
39.25 4.75 0
40.25 4.75 0
41.25 4.75 0
42.25 4.75 0
43.25 4.75 0
44.25 4.75 0
45.25 4.75 0
46.25 4.75 0
47.25 4.75 0
48.25 4.75 0
49.25 4.75 0
0.75 5.25 0
1.75 5.25 0
2.75 5.25 0
3.75 5.25 0
4.75 5.25 0
5.75 5.25 0
6.75 5.25 0
7.75 5.25 0
8.75 5.25 0
9.75 5.25 0
10.75 5.25 0
11.75 5.25 0
12.75 5.25 0
13.75 5.25 0
14.75 5.25 0
15.75 5.25 0
16.75 5.25 0
17.75 5.25 0
18.75 5.25 0
19.75 5.25 0
20.75 5.25 0
21.75 5.25 0
22.75 5.25 0
23.75 5.25 0
24.75 5.25 0
25.75 5.25 0
26.75 5.25 0
27.75 5.25 0
28.75 5.25 0
29.75 5.25 0
30.75 5.25 0
31.75 5.25 0
32.75 5.25 0
33.75 5.25 0
34.75 5.25 0
35.75 5.25 0
36.75 5.25 0
37.75 5.25 0
38.75 5.25 0
39.75 5.25 0
40.75 5.25 0
41.75 5.25 0
42.75 5.25 0
43.75 5.25 0
44.75 5.25 0
45.75 5.25 0
46.75 5.25 0
47.75 5.25 0
48.75 5.25 0
49.75 5.25 0
0.25 5.75 0
1.25 5.75 0
2.25 5.75 0
3.25 5.75 0
4.25 5.75 0
5.25 5.75 0
6.25 5.75 0
7.25 5.75 0
8.25 5.75 0
9.25 5.75 0
10.25 5.75 0
11.25 5.75 0
12.25 5.75 0
13.25 5.75 0
14.25 5.75 0
15.25 5.75 0
16.25 5.75 0
17.25 5.75 0
18.25 5.75 0
19.25 5.75 0
20.25 5.75 0
21.25 5.75 0
22.25 5.75 0
23.25 5.75 0
24.25 5.75 0
25.25 5.75 0
26.25 5.75 0
27.25 5.75 0
28.25 5.75 0
29.25 5.75 0
30.25 5.75 0
31.25 5.75 0
32.25 5.75 0
33.25 5.75 0
34.25 5.75 0
35.25 5.75 0
36.25 5.75 0
37.25 5.75 0
38.25 5.75 0
39.25 5.75 0
40.25 5.75 0
41.25 5.75 0
42.25 5.75 0
43.25 5.75 0
44.25 5.75 0
45.25 5.75 0
46.25 5.75 0
47.25 5.75 0
48.25 5.75 0
49.25 5.75 0
0.75 6.25 0
1.75 6.25 0
2.75 6.25 0
3.75 6.25 0
4.75 6.25 0
5.75 6.25 0
6.75 6.25 0
7.75 6.25 0
8.75 6.25 0
9.75 6.25 0
10.75 6.25 0
11.75 6.25 0
12.75 6.25 0
13.75 6.25 0
14.75 6.25 0
15.75 6.25 0
16.75 6.25 0
17.75 6.25 0
18.75 6.25 0
19.75 6.25 0
20.75 6.25 0
21.75 6.25 0
22.75 6.25 0
23.75 6.25 0
24.75 6.25 0
25.75 6.25 0
26.75 6.25 0
27.75 6.25 0
28.75 6.25 0
29.75 6.25 0
30.75 6.25 0
31.75 6.25 0
32.75 6.25 0
33.75 6.25 0
34.75 6.25 0
35.75 6.25 0
36.75 6.25 0
37.75 6.25 0
38.75 6.25 0
39.75 6.25 0
40.75 6.25 0
41.75 6.25 0
42.75 6.25 0
43.75 6.25 0
44.75 6.25 0
45.75 6.25 0
46.75 6.25 0
47.75 6.25 0
48.75 6.25 0
49.75 6.25 0
0.25 6.75 0
1.25 6.75 0
2.25 6.75 0
3.25 6.75 0
4.25 6.75 0
5.25 6.75 0
6.25 6.75 0
7.25 6.75 0
8.25 6.75 0
9.25 6.75 0
10.25 6.75 0
11.25 6.75 0
12.25 6.75 0
13.25 6.75 0
14.25 6.75 0
15.25 6.75 0
16.25 6.75 0
17.25 6.75 0
18.25 6.75 0
19.25 6.75 0
20.25 6.75 0
21.25 6.75 0
22.25 6.75 0
23.25 6.75 0
24.25 6.75 0
25.25 6.75 0
26.25 6.75 0
27.25 6.75 0
28.25 6.75 0
29.25 6.75 0
30.25 6.75 0
31.25 6.75 0
32.25 6.75 0
33.25 6.75 0
34.25 6.75 0
35.25 6.75 0
36.25 6.75 0
37.25 6.75 0
38.25 6.75 0
39.25 6.75 0
40.25 6.75 0
41.25 6.75 0
42.25 6.75 0
43.25 6.75 0
44.25 6.75 0
45.25 6.75 0
46.25 6.75 0
47.25 6.75 0
48.25 6.75 0
49.25 6.75 0
0.75 7.25 0
1.75 7.25 0
2.75 7.25 0
3.75 7.25 0
4.75 7.25 0
5.75 7.25 0
6.75 7.25 0
7.75 7.25 0
8.75 7.25 0
9.75 7.25 0
10.75 7.25 0
11.75 7.25 0
12.75 7.25 0
13.75 7.25 0
14.75 7.25 0
15.75 7.25 0
16.75 7.25 0
17.75 7.25 0
18.75 7.25 0
19.75 7.25 0
20.75 7.25 0
21.75 7.25 0
22.75 7.25 0
23.75 7.25 0
24.75 7.25 0
25.75 7.25 0
26.75 7.25 0
27.75 7.25 0
28.75 7.25 0
29.75 7.25 0
30.75 7.25 0
31.75 7.25 0
32.75 7.25 0
33.75 7.25 0
34.75 7.25 0
35.75 7.25 0
36.75 7.25 0
37.75 7.25 0
38.75 7.25 0
39.75 7.25 0
40.75 7.25 0
41.75 7.25 0
42.75 7.25 0
43.75 7.25 0
44.75 7.25 0
45.75 7.25 0
46.75 7.25 0
47.75 7.25 0
48.75 7.25 0
49.75 7.25 0
0.25 7.75 0
1.25 7.75 0
2.25 7.75 0
3.25 7.75 0
4.25 7.75 0
5.25 7.75 0
6.25 7.75 0
7.25 7.75 0
8.25 7.75 0
9.25 7.75 0
10.25 7.75 0
11.25 7.75 0
12.25 7.75 0
13.25 7.75 0
14.25 7.75 0
15.25 7.75 0
16.25 7.75 0
17.25 7.75 0
18.25 7.75 0
19.25 7.75 0
20.25 7.75 0
21.25 7.75 0
[...]
POINT_DATA 5000
VECTORS velocity float
0.127769 0.0108489 0.991745
0.326277 -0.102769 0.939671
0.497063 -0.261856 0.827261
0.605862 -0.436446 0.665166
0.641402 -0.602503 0.474967
0.607512 -0.743297 0.280069
0.516932 -0.850176 0.0999073
0.385708 -0.921134 -0.0523659
0.229445 -0.958426 -0.169628
0.0615309 -0.966428 -0.249463
-0.107329 -0.950145 -0.292754
-0.268947 -0.914397 -0.302565
-0.417298 -0.863476 -0.283321
-0.548207 -0.801094 -0.240244
-0.659115 -0.730446 -0.178931
-0.748921 -0.654283 -0.105029
-0.817832 -0.574958 -0.0239365
-0.867174 -0.494443 0.0594575
-0.899143 -0.414326 0.140981
-0.916514 -0.335826 0.21731
-0.922335 -0.259813 0.285999
-0.919649 -0.186854 0.345443
-0.91127 -0.117274 0.394758
-0.899628 -0.0512267 0.433642
-0.886692 0.0112377 0.462224
-0.873951 0.0701077 0.480931
-0.862443 0.125365 0.490384
-0.852814 0.176959 0.491318
-0.845388 0.224798 0.484546
-0.840231 0.268772 0.470928
-0.837214 0.308772 0.451367
-0.836065 0.344725 0.426803
-0.836415 0.37662 0.398205
-0.837847 0.40453 0.366562
-0.83994 0.428611 0.332855
-0.842303 0.449112 0.298034
-0.844601 0.466367 0.262965
-0.846558 0.480806 0.228397
-0.847936 0.492963 0.194916
-0.848487 0.503514 0.162923
-0.847899 0.513301 0.132627
-0.845742 0.523345 0.104067
-0.841447 0.534798 0.0771804
-0.834331 0.548813 0.0519171
-0.823684 0.566336 0.0284076
-0.808872 0.587941 0.00713574
-0.789363 0.613829 -0.0109204
-0.764668 0.643969 -0.0242124
-0.735253 0.677125 -0.0300828
-0.706852 0.706852 -0.0268604
0.0108489 0.127769 0.991745
0.216058 0.0616754 0.974431
0.427619 -0.0743942 0.900893
0.588047 -0.248602 0.769674
0.674755 -0.431745 0.598583
0.685127 -0.600959 0.411642
0.629345 -0.742102 0.230671
0.523282 -0.84917 0.0713121
0.38338 -0.921809 -0.0573384
0.224089 -0.962738 -0.151392
0.0571134 -0.975909 -0.210571
-0.108463 -0.965449 -0.236948
-0.265768 -0.935194 -0.23405
-0.40972 -0.888586 -0.206262
-0.536729 -0.828748 -0.158424
-0.644523 -0.75859 -0.0955578
-0.732059 -0.680865 -0.0226373
-0.799449 -0.598154 0.0556181
-0.847842 -0.512792 0.134938
-0.879233 -0.426791 0.211657
-0.896213 -0.341786 0.282814
-0.901699 -0.259024 0.346188
-0.898667 -0.179392 0.400269
-0.889933 -0.103478 0.444198
-0.877977 -0.0316389 0.477655
-0.864841 0.0359178 0.500759
-0.852082 0.0990695 0.513948
-0.840781 0.157726 0.51789
-0.831595 0.211803 0.513409
-0.824826 0.261217 0.501426
-0.820487 0.305905 0.482932
-0.818382 0.345846 0.458958
-0.818163 0.381085 0.430562
-0.819396 0.411754 0.39881
-0.821616 0.43807 0.364748
-0.824381 0.460334 0.329376
-0.827304 0.478919 0.293606
-0.830074 0.494267 0.258219
-0.832441 0.506896 0.223827
-0.834176 0.517427 0.19084
-0.835011 0.526623 0.159452
-0.834573 0.535424 0.129651
-0.832326 0.544958 0.101265
-0.827563 0.556466 0.0740569
-0.819449 0.571149 0.0478869
-0.807122 0.58994 0.0229169
-0.789788 0.61338 -0.000133701
-0.766735 0.641663 -0.0196275
-0.737787 0.674267 -0.032159
-0.706714 0.706714 -0.0333407
0.0616754 0.216058 0.974431
0.2989 0.123159 0.946304
0.512961 -0.0327991 0.857785
0.661404 -0.221991 0.716425
0.728899 -0.415217 0.544336
0.719245 -0.590456 0.366126
0.647032 -0.735373 0.201433
0.530021 -0.845673 0.062567
0.384602 -0.922006 -0.0445696
0.224117 -0.967327 -0.118535
0.0588014 -0.98526 -0.160638
-0.10365 -0.979316 -0.173773
-0.257445 -0.95267 -0.161685
-0.398203 -0.908246 -0.128541
-0.522675 -0.848893 -0.078683
-0.628659 -0.777507 -0.0164761
-0.715019 -0.69703 0.0538195
-0.781702 -0.610338 0.128177
-0.829666 -0.520075 0.202918
-0.860725 -0.428522 0.274812
-0.877317 -0.337547 0.341139
-0.882268 -0.248609 0.399745
-0.878538 -0.162813 0.449068
-0.868999 -0.0809709 0.488144
-0.856238 -0.00366356 0.516569
-0.842417 0.0687002 0.534429
-0.829192 0.135834 0.542208
-0.817707 0.197537 0.54068
-0.808628 0.253669 0.530823
-0.802222 0.304158 0.513739
-0.798441 0.349004 0.490599
-0.79701 0.3883 0.4626
-0.797506 0.422236 0.430931
-0.79944 0.451104 0.396738
-0.802321 0.475284 0.36109
-0.805705 0.495226 0.324947
-0.809227 0.511434 0.289116
-0.812593 0.524467 0.254219
-0.815554 0.534956 0.220667
-0.817844 0.543641 0.188641
-0.81911 0.551419 0.158102
-0.818844 0.559375 0.128821
-0.816344 0.568762 0.100463
-0.810731 0.580884 0.0727221
-0.801032 0.596887 0.0455368
-0.786294 0.617549 0.0193646
-0.765663 0.643227 -0.00441615
-0.738568 0.673788 -0.0229421
-0.706741 0.706741 -0.0321489
-0.677125 0.735253 -0.0300828
-0.102769 0.326277 0.939671
0.123159 0.2989 0.946304
0.375655 0.185354 0.908035
0.587279 0.0119479 0.809296
0.723076 -0.19121 0.663777
0.773511 -0.394396 0.496118
0.747499 -0.576329 0.330287
0.662729 -0.726068 0.183343
0.537931 -0.840515 0.0645376
0.389008 -0.920951 -0.0228409
0.228117 -0.970408 -0.0791927
0.0641914 -0.992194 -0.106915
-0.0961661 -0.989339 -0.109364
-0.247884 -0.964574 -0.0902783
-0.386916 -0.920562 -0.0534953
-0.510053 -0.860138 -0.00282683
-0.614984 -0.786404 0.0580058
-0.700435 -0.702608 0.125427
-0.766247 -0.611907 0.196052
-0.813295 -0.517116 0.266723
-0.843318 -0.420601 0.334529
-0.85869 -0.324282 0.396852
-0.862209 -0.229729 0.451464
-0.856877 -0.138238 0.49664
-0.845681 -0.0508836 0.531257
-0.831368 0.0314655 0.554831
-0.816258 0.10814 0.567476
-0.802129 0.178658 0.569799
-0.790178 0.242703 0.562774
-0.781063 0.300113 0.547606
-0.774987 0.350863 0.525633
-0.771809 0.395067 0.498231
-0.771152 0.432969 0.466758
-0.772512 0.464938 0.432503
-0.775346 0.491441 0.396641
-0.779142 0.513023 0.360202
-0.783461 0.530276 0.324032
-0.787948 0.543831 0.288768
-0.792306 0.554364 0.254818
-0.796246 0.562631 0.222351
-0.799411 0.569512 0.191305
-0.801309 0.576064 0.161412
-0.80125 0.583527 0.132267
-0.798342 0.593255 0.10344
-0.791542 0.606535 0.0746763
-0.779784 0.624345 0.0461576
-0.762088 0.647199 0.0188702
-0.737693 0.675118 -0.00502521
-0.706922 0.706922 -0.0228367
-0.674267 0.737787 -0.032159
-0.0743942 0.427619 0.900893
0.185354 0.375655 0.908035
0.445296 0.244903 0.86124
0.651683 0.0561671 0.756409
0.774928 -0.159429 0.611612
0.810554 -0.371748 0.452554
0.771457 -0.56024 0.301638
0.677304 -0.71504 0.173141
0.547042 -0.833865 0.0735799
0.395762 -0.918343 0.00417036
0.23447 -0.971427 -0.0367994
0.0710476 -0.996096 -0.0523979
-0.0886085 -0.994996 -0.0461685
-0.239728 -0.970598 -0.0216983
-0.378232 -0.925545 0.0175529
-0.500723 -0.862908 0.0683031
-0.604723 -0.78617 0.127458
-0.688911 -0.698927 0.192102
-0.753171 -0.6045 0.259447
-0.798442 -0.505686 0.32676
-0.826478 -0.404733 0.391311
-0.839642 -0.303499 0.450432
-0.840742 -0.203638 0.501681
-0.832869 -0.106702 0.543088
-0.819178 -0.0141258 0.573365
-0.80263 0.0728483 0.592012
-0.785742 0.153243 0.599271
-0.770418 0.226381 0.595993
-0.757892 0.291876 0.583446
-0.748772 0.349599 0.563135
-0.743159 0.399643 0.536656
-0.740784 0.442292 0.505586
-0.741154 0.477987 0.4714
-0.743679 0.507295 0.435423
-0.747767 0.530865 0.398782
-0.752887 0.5494 0.36238
-0.7586 0.563628 0.326878
-0.764536 0.574301 0.292682
-0.770356 0.58222 0.259946
-0.775677 0.588282 0.228584
-0.78 0.59353 0.198297
-0.782645 0.599194 0.168624
-0.782715 0.60665 0.139042
-0.779131 0.617288 0.109135
-0.770736 0.632259 0.07883
-0.756436 0.652251 0.0487207
-0.735336 0.677397 0.0203501
-0.7071 0.7071 -0.00433178
-0.673788 0.738568 -0.0229421
-0.643969 0.764668 -0.0242124
-0.261856 0.497063 0.827261
-0.0327991 0.512961 0.857785
0.244903 0.445296 0.86124
0.50747 0.300091 0.807725
0.706912 0.0981734 0.700455
0.818249 -0.128066 0.560418
0.841391 -0.34838 0.413149
0.792133 -0.54294 0.278822
0.691145 -0.702699 0.168916
0.557011 -0.825872 0.0875981
0.403851 -0.914174 0.0345096
0.241667 -0.970334 0.00705269
0.0776372 -0.99698 0.00178272
-0.0826273 -0.996466 0.0151324
-0.234254 -0.971191 0.0437304
-0.372859 -0.924031 0.0845108
-0.494771 -0.858515 0.134732
-0.59744 -0.778602 0.191949
-0.679681 -0.688159 0.253911
-0.741595 -0.590481 0.318386
-0.784274 -0.488114 0.382961
-0.809514 -0.383038 0.444937
-0.819657 -0.277011 0.501425
-0.817531 -0.171846 0.549647
-0.806353 -0.0694837 0.587338
-0.789513 0.0281439 0.613089
-0.770243 0.119331 0.626487
-0.751289 0.202775 0.628051
-0.734677 0.277647 0.619001
-0.721642 0.343567 0.600995
-0.712699 0.400531 0.575877
-0.707804 0.448828 0.545497
-0.706537 0.488972 0.511577
-0.708285 0.521636 0.475635
-0.712372 0.547598 0.438933
-0.718165 0.567691 0.402449
-0.725111 0.582766 0.366875
-0.732743 0.593679 0.332615
-0.740638 0.601309 0.299805
-0.748359 0.606596 0.268329
-0.755377 0.610598 0.237857
-0.761001 0.614541 0.207886
-0.764332 0.619819 0.177823
-0.764269 0.627891 0.147124
-0.759589 0.640065 0.115506
-0.749092 0.657218 0.0832215
-0.73176 0.679628 0.0513094
-0.706946 0.706946 0.0213218
-0.675118 0.737693 -0.00502521
-0.641663 0.766735 -0.0196275
-0.248602 0.588047 0.769674
0.0119479 0.587279 0.809296
0.300091 0.50747 0.807725
0.562001 0.350034 0.74942
0.753564 0.137154 0.642908
0.854071 -0.0978173 0.510876
0.867072 -0.324857 0.377696
0.81022 -0.524854 0.260907
0.704365 -0.689345 0.169333
0.567327 -0.816744 0.105205
0.412251 -0.908603 0.0670017
0.248396 -0.967286 0.0515424
0.0826358 -0.995051 0.0551795
-0.0792761 -0.994073 0.074393
-0.232033 -0.96691 0.106049
-0.370802 -0.916924 0.147501
-0.491713 -0.848272 0.196602
-0.592352 -0.765382 0.251614
-0.671882 -0.672212 0.310974
-0.730739 -0.571776 0.372951
-0.770184 -0.466167 0.435321
-0.792011 -0.357001 0.495246
-0.798497 -0.245982 0.54945
-0.792486 -0.135232 0.594709
-0.777373 -0.0272734 0.628449
-0.756859 0.075307 0.649225
-0.734521 0.170265 0.656878
-0.713359 0.255989 0.652371
-0.695502 0.331583 0.63744
-0.68214 0.39679 0.614202
-0.673645 0.451837 0.584847
-0.669799 0.497298 0.551421
-0.670022 0.533971 0.515698
-0.673582 0.56279 0.479119
-0.679729 0.584749 0.442761
-0.687778 0.600855 0.40735
-0.697129 0.612103 0.373284
-0.707244 0.619479 0.340664
-0.71759 0.624 0.309337
-0.727572 0.626765 0.278935
-0.736463 0.629017 0.248917
-0.743346 0.632166 0.21864
-0.7471 0.637728 0.187468
-0.746455 0.647143 0.154954
-0.740121 0.661484 0.121077
-0.726959 0.681214 0.0864782
-0.706135 0.706135 0.0524044
-0.677397 0.735336 0.0203501
-0.643227 0.765663 -0.00441615
-0.613829 0.789363 -0.0109204
-0.436446 0.605862 0.665166
-0.221991 0.661404 0.716425
0.0561671 0.651683 0.756409
0.350034 0.562001 0.74942
0.608986 0.394417 0.688165
0.792334 0.172814 0.5851
0.883381 -0.068972 0.463552
0.888489 -0.301463 0.345987
0.826214 -0.506255 0.247137
0.716921 -0.675239 0.173427
0.577436 -0.806729 0.125523
0.42005 -0.901858 0.101045
0.253619 -0.962489 0.0964005
0.0851396 -0.99052 0.107806
-0.0790993 -0.988115 0.131804
-0.233128 -0.958256 0.165518
-0.371676 -0.905038 0.206791
-0.490874 -0.83333 0.254173
-0.588704 -0.747899 0.306715
-0.664846 -0.652543 0.363547
-0.720113 -0.549732 0.423358
-0.755877 -0.440936 0.483969
-0.773837 -0.327385 0.542213
-0.776145 -0.210837 0.594262
-0.765663 -0.0939435 0.636344
-0.74604 0.0199475 0.665602
-0.721394 0.127409 0.680704
-0.695719 0.2256 0.681967
-0.672292 0.312665 0.671018
-0.653311 0.387783 0.650238
-0.63987 0.450971 0.622248
-0.63216 0.502826 0.589526
-0.629768 0.544294 0.554199
-0.631958 0.576508 0.517945
-0.637884 0.600673 0.481971
-0.646713 0.617994 0.44704
-0.657681 0.629646 0.413523
-0.670086 0.636764 0.381466
-0.683253 0.640474 0.350656
-0.696472 0.641949 0.320668
-0.708938 0.642473 0.290922
-0.719684 0.643484 0.260735
-0.727562 0.646548 0.229411
-0.731263 0.653213 0.196384
-0.729423 0.664743 0.161428
-0.720789 0.681813 0.124875
-0.704383 0.704383 0.0876925
-0.679628 0.73176 0.0513094
-0.647199 0.762088 0.0188702
-0.61338 0.789788 -0.000133701
-0.431745 0.674755 0.598583
-0.19121 0.723076 0.663777
0.0981734 0.706912 0.700455
0.394417 0.608986 0.688165
0.648779 0.433269 0.625591
0.824022 0.205122 0.528121
0.907114 -0.0416442 0.418821
0.906382 -0.278388 0.317761
0.840435 -0.487393 0.236892
0.728651 -0.660662 0.180535
0.586776 -0.796094 0.148081
0.426457 -0.894155 0.136458
0.256537 -0.956089 0.141716
0.0845632 -0.9835 0.159928
-0.0823103 -0.978773 0.187691
-0.237355 -0.94561 0.222452
-0.37501 -0.889029 0.262669
-0.491695 -0.814581 0.307723
-0.58602 -0.727154 0.35753
-0.658283 -0.630084 0.411895
-0.709634 -0.525057 0.469823
-0.741446 -0.412796 0.529015
-0.755202 -0.294162 0.58578
-0.752852 -0.171148 0.635548
-0.737305 -0.0472393 0.673906
-0.712568 0.0730547 0.697789
-0.683316 0.18525 0.706231
-0.654054 0.28589 0.700343
-0.628342 0.373029 0.682668
-0.608407 0.446148 0.656348
-0.595194 0.505759 0.624462
-0.588682 0.552976 0.589637
-0.588261 0.589203 0.553885
-0.593043 0.615932 0.518583
-0.602055 0.634635 0.484528
-0.614342 0.646718 0.45204
-0.628992 0.653509 0.421065
-0.645123 0.656287 0.391284
-0.661849 0.656334 0.362189
-0.678222 0.655005 0.333143
-0.693181 0.653782 0.303428
-0.705519 0.654286 0.27231
-0.713884 0.65816 0.239153
-0.716854 0.666838 0.203585
-0.713079 0.681219 0.165706
-0.701451 0.701451 0.12623
-0.681214 0.726959 0.0864782
-0.652251 0.756436 0.0487207
-0.617549 0.786294 0.0193646
-0.587941 0.808872 0.00713574
-0.602503 0.641402 0.474967
-0.415217 0.728899 0.544336
-0.159429 0.774928 0.611612
0.137154 0.753564 0.642908
0.433269 0.648779 0.625591
0.681917 0.466837 0.563074
0.849473 0.234192 0.47281
0.926121 -0.0158674 0.376892
0.921339 -0.255793 0.292754
0.853066 -0.468512 0.229727
0.73934 -0.645881 0.1903
0.594833 -0.785065 0.172761
0.430825 -0.885623 0.173384
0.256564 -0.948103 0.187816
0.0805626 -0.973958 0.211933
-0.0889275 -0.966089 0.242414
-0.244459 -0.929208 0.277151
-0.380449 -0.869359 0.315395
-0.493899 -0.792624 0.357507
-0.584229 -0.703711 0.40431
-0.652364 -0.605199 0.45624
-0.699692 -0.497768 0.512502
-0.727431 -0.381289 0.570494
-0.736696 -0.256315 0.625765
-0.729157 -0.125356 0.672768
-0.707814 0.00678672 0.706366
-0.677218 0.133967 0.723484
-0.642797 0.250416 0.72395
-0.609675 0.352172 0.710121
-0.581686 0.437531 0.685717
-0.561024 0.506641 0.654651
-0.548434 0.560775 0.620283
-0.54367 0.601714 0.585118
-0.545924 0.631362 0.550771
-0.554137 0.651561 0.518073
-0.567157 0.664025 0.487241
-0.583818 0.670331 0.458053
-0.602964 0.671953 0.430017
-0.623439 0.670321 0.402483
-0.644074 0.666895 0.374728
-0.663638 0.663231 0.34599
-0.680817 0.661012 0.31552
-0.694192 0.661973 0.282648
-0.702288 0.667699 0.24692
-0.703681 0.679305 0.208273
-0.697152 0.697152 0.167206
-0.681813 0.720789 0.124875
-0.657218 0.749092 0.0832215
-0.624345 0.779784 0.0461576
-0.58994 0.807122 0.0229169
-0.600959 0.685127 0.411642
-0.394396 0.773511 0.496118
-0.128066 0.818249 0.560418
0.172814 0.792334 0.5851
0.466837 0.681917 0.563074
0.709051 0.49551 0.501715
0.869528 0.26022 0.419771
0.941158 0.00836819 0.337864
0.933821 -0.233811 0.270761
0.864208 -0.449817 0.225409
0.748765 -0.631093 0.202663
0.601166 -0.773756 0.199753
0.432644 -0.876232 0.212216
0.253289 -0.938369 0.235178
0.072952 -0.961687 0.264266
-0.0988954 -0.949953 0.296325
-0.254268 -0.90913 0.329894
-0.387889 -0.846257 0.365227
-0.497611 -0.767689 0.403778
-0.583749 -0.677616 0.447297
-0.647792 -0.577557 0.496783
-0.691212 -0.466969 0.551513
-0.714868 -0.344764 0.608359
-0.719303 -0.211335 0.661771
-0.705808 -0.070244 0.704912
-0.677617 0.0715907 0.731922
-0.640144 0.205745 0.740192
-0.599862 0.325087 0.731084
-0.562604 0.425601 0.70876
-0.532419 0.50645 0.678261
-0.511375 0.56894 0.644052
-0.499978 0.615364 0.609384
-0.497745 0.64824 0.576225
-0.503653 0.669946 0.545441
-0.516401 0.682615 0.517075
-0.534545 0.688144 0.490632
-0.556579 0.688248 0.465333
-0.58098 0.684543 0.440299
-0.606236 0.678629 0.414657
-0.630845 0.672168 0.387588
-0.653302 0.666928 0.358334
-0.672078 0.66474 0.326238
-0.685636 0.667327 0.290822
-0.692495 0.676003 0.251932
-0.691354 0.691354 0.209902
-0.681219 0.713079 0.165706
-0.661484 0.740121 0.121077
-0.632259 0.770736 0.07883
-0.596887 0.801032 0.0455368
-0.566336 0.823684 0.0284076
-0.743297 0.607512 0.280069
-0.590456 0.719245 0.366126
-0.371748 0.810554 0.452554
-0.0978173 0.854071 0.510876
0.205122 0.824022 0.528121
0.49551 0.709051 0.501715
0.730881 0.51975 0.44235
0.884978 0.283449 0.36942
0.952867 0.0311085 0.30179
0.944185 -0.212522 0.251691
0.873913 -0.431428 0.223934
0.756726 -0.616369 0.217842
0.60541 -0.762106 0.229507
0.43151 -0.865747 0.253537
0.246412 -0.926505 0.284375
0.0616165 -0.946289 0.317395
-0.112201 -0.930086 0.349787
-0.266815 -0.885242 0.380994
-0.397603 -0.81962 0.412473
-0.503458 -0.739495 0.446853
-0.585582 -0.648172 0.486792
-0.645903 -0.545787 0.533785
-0.685752 -0.430303 0.587013
-0.705325 -0.299605 0.642459
-0.704287 -0.154348 0.692934
-0.683505 -0.000237518 0.729946
-0.646825 0.152388 0.747259
-0.601114 0.292243 0.743812
-0.554237 0.411352 0.72361
-0.512705 0.50673 0.693079
-0.480605 0.579329 0.658329
-0.459767 0.632075 0.623775
-0.45043 0.668386 0.591923
-0.451861 0.691435 0.563684
-0.462741 0.703943 0.538827
-0.481388 0.708216 0.516426
-0.505894 0.706261 0.495245
-0.534249 0.69991 0.474029
-0.564453 0.690935 0.451665
-0.594585 0.681137 0.427224
-0.622827 0.672402 0.399953
-0.647458 0.666674 0.369247
-0.666848 0.665812 0.334676
-0.679471 0.671314 0.296069
-0.683979 0.683979 0.253665
-0.679305 0.703681 0.208273
-0.664743 0.729423 0.161428
-0.640065 0.759589 0.115506
-0.606535 0.791542 0.0746763
-0.571149 0.819449 0.0478869
-0.742102 0.629345 0.230671
-0.576329 0.747499 0.330287
-0.34838 0.841391 0.413149
-0.068972 0.883381 0.463552
0.234192 0.849473 0.47281
0.51975 0.730881 0.44235
0.748106 0.540054 0.385589
0.896538 0.30415 0.322045
0.961785 0.0524413 0.268736
0.95271 -0.191929 0.2356
0.882206 -0.413341 0.225528
0.763038 -0.601606 0.236312
0.607244 -0.749832 0.262691
0.42708 -0.853673 0.29807
0.235683 -0.911879 0.336052
0.0464223 -0.927136 0.371839
-0.12899 -0.905958 0.403238
-0.282473 -0.857057 0.430885
-0.410369 -0.788796 0.4576
-0.512696 -0.706935 0.487223
-0.591459 -0.613466 0.523293
-0.6488 -0.50673 0.5677
-0.68555 -0.382874 0.619216
-0.700722 -0.238904 0.672245
-0.6927 -0.0769448 0.71711
-0.662174 0.0929785 0.743559
-0.614592 0.255446 0.74634
-0.559178 0.396667 0.727994
-0.50531 0.509715 0.696314
-0.459803 0.594413 0.659739
-0.426467 0.654344 0.624468
-0.406814 0.694157 0.593842
-0.400827 0.718161 0.568844
-0.407472 0.7299 0.548829
-0.424983 0.732212 0.532218
-0.451066 0.727443 0.517075
-0.483128 0.717662 0.501546
-0.518502 0.704835 0.484111
-0.554642 0.690935 0.463659
-0.589242 0.678008 0.43943
-0.620262 0.668145 0.410923
-0.645909 0.663357 0.377835
-0.664611 0.665312 0.340078
-0.675007 0.675007 0.297878
-0.676003 0.692495 0.251932
-0.666838 0.716854 0.203585
-0.647143 0.746455 0.154954
-0.617288 0.779131 0.109135
-0.580884 0.810731 0.072722
-0.548813 0.834331 0.0519171
-0.850176 0.516932 0.0999073
-0.735373 0.647032 0.201433
-0.56024 0.771457 0.301638
-0.324857 0.867072 0.377696
-0.0416442 0.907114 0.418821
0.26022 0.869528 0.419771
0.540054 0.748106 0.385589
0.761389 0.556917 0.33186
0.904832 0.322607 0.277857
0.968351 0.0725092 0.238827
0.959604 -0.17193 0.22271
0.889085 -0.395388 0.230642
0.767516 -0.586477 0.258773
0.606357 -0.736366 0.30016
0.419022 -0.839193 0.346664
0.220841 -0.89353 0.39094
0.027128 -0.903265 0.428224
-0.149689 -0.876628 0.457293
-0.302092 -0.823472 0.480244
-0.427612 -0.752184 0.501365
-0.527374 -0.667464 0.525708
-0.60398 -0.569423 0.557643
-0.659391 -0.454032 0.599215
-0.693235 -0.315382 0.648043
-0.70245 -0.150651 0.695607
-0.683914 0.0334454 0.728796
-0.639514 0.218951 0.736941
-0.578341 0.384924 0.719274
-0.512626 0.518344 0.684496
-0.45245 0.616885 0.644004
-0.404058 0.684723 0.606541
-0.370712 0.727995 0.576711
-0.353701 0.752436 0.55564
-0.352829 0.762643 0.542114
-0.366652 0.762119 0.533611
-0.392685 0.7536 0.527149
-0.427723 0.739404 0.519938
-0.468247 0.721701 0.509797
-0.510829 0.702675 0.495279
-0.552414 0.684584 0.475587
-0.590442 0.669729 0.45038
-0.622847 0.660307 0.41959
-0.647974 0.658168 0.383334
-0.664484 0.664484 0.341938
-0.671314 0.679471 0.296069
-0.667699 0.702288 0.24692
-0.653213 0.731263 0.196384
-0.627891 0.764269 0.147124
-0.593255 0.798342 0.10344
-0.556466 0.827563 0.0740569
-0.84917 0.523282 0.0713121
-0.726068 0.662729 0.183343
-0.54294 0.792133 0.278822
-0.301463 0.888489 0.345987
-0.0158674 0.926121 0.376892
0.283449 0.884978 0.36942
0.556917 0.761389 0.33186