# vtk DataFile Version 2.0
tmp/0.000.00-10.000.000.001.0087.vtk
ASCII
DATASET UNSTRUCTURED_GRID
POINTS 5000 float
0.75 0.25 0
1.75 0.25 0
2.75 0.25 0
3.75 0.25 0
4.75 0.25 0
5.75 0.25 0
6.75 0.25 0
7.75 0.25 0
8.75 0.25 0
9.75 0.25 0
10.75 0.25 0
11.75 0.25 0
12.75 0.25 0
13.75 0.25 0
14.75 0.25 0
15.75 0.25 0
16.75 0.25 0
17.75 0.25 0
18.75 0.25 0
19.75 0.25 0
20.75 0.25 0
21.75 0.25 0
22.75 0.25 0
23.75 0.25 0
24.75 0.25 0
25.75 0.25 0
26.75 0.25 0
27.75 0.25 0
28.75 0.25 0
29.75 0.25 0
30.75 0.25 0
31.75 0.25 0
32.75 0.25 0
33.75 0.25 0
34.75 0.25 0
35.75 0.25 0
36.75 0.25 0
37.75 0.25 0
38.75 0.25 0
39.75 0.25 0
40.75 0.25 0
41.75 0.25 0
42.75 0.25 0
43.75 0.25 0
44.75 0.25 0
45.75 0.25 0
46.75 0.25 0
47.75 0.25 0
48.75 0.25 0
49.75 0.25 0
0.25 0.75 0
1.25 0.75 0
2.25 0.75 0
3.25 0.75 0
4.25 0.75 0
5.25 0.75 0
6.25 0.75 0
7.25 0.75 0
8.25 0.75 0
9.25 0.75 0
10.25 0.75 0
11.25 0.75 0
12.25 0.75 0
13.25 0.75 0
14.25 0.75 0
15.25 0.75 0
16.25 0.75 0
17.25 0.75 0
18.25 0.75 0
19.25 0.75 0
20.25 0.75 0
21.25 0.75 0
22.25 0.75 0
23.25 0.75 0
24.25 0.75 0
25.25 0.75 0
26.25 0.75 0
27.25 0.75 0
28.25 0.75 0
29.25 0.75 0
30.25 0.75 0
31.25 0.75 0
32.25 0.75 0
33.25 0.75 0
34.25 0.75 0
35.25 0.75 0
36.25 0.75 0
37.25 0.75 0
38.25 0.75 0
39.25 0.75 0
40.25 0.75 0
41.25 0.75 0
42.25 0.75 0
43.25 0.75 0
44.25 0.75 0
45.25 0.75 0
46.25 0.75 0
47.25 0.75 0
48.25 0.75 0
49.25 0.75 0
0.75 1.25 0
1.75 1.25 0
2.75 1.25 0
3.75 1.25 0
4.75 1.25 0
5.75 1.25 0
6.75 1.25 0
7.75 1.25 0
8.75 1.25 0
9.75 1.25 0
10.75 1.25 0
11.75 1.25 0
12.75 1.25 0
13.75 1.25 0
14.75 1.25 0
15.75 1.25 0
16.75 1.25 0
17.75 1.25 0
18.75 1.25 0
19.75 1.25 0
20.75 1.25 0
21.75 1.25 0
22.75 1.25 0
23.75 1.25 0
24.75 1.25 0
25.75 1.25 0
26.75 1.25 0
27.75 1.25 0
28.75 1.25 0
29.75 1.25 0
30.75 1.25 0
31.75 1.25 0
32.75 1.25 0
33.75 1.25 0
34.75 1.25 0
35.75 1.25 0
36.75 1.25 0
37.75 1.25 0
38.75 1.25 0
39.75 1.25 0
40.75 1.25 0
41.75 1.25 0
42.75 1.25 0
43.75 1.25 0
44.75 1.25 0
45.75 1.25 0
46.75 1.25 0
47.75 1.25 0
48.75 1.25 0
49.75 1.25 0
0.25 1.75 0
1.25 1.75 0
2.25 1.75 0
3.25 1.75 0
4.25 1.75 0
5.25 1.75 0
6.25 1.75 0
7.25 1.75 0
8.25 1.75 0
9.25 1.75 0
10.25 1.75 0
11.25 1.75 0
12.25 1.75 0
13.25 1.75 0
14.25 1.75 0
15.25 1.75 0
16.25 1.75 0
17.25 1.75 0
18.25 1.75 0
19.25 1.75 0
20.25 1.75 0
21.25 1.75 0
22.25 1.75 0
23.25 1.75 0
24.25 1.75 0
25.25 1.75 0
26.25 1.75 0
27.25 1.75 0
28.25 1.75 0
29.25 1.75 0
30.25 1.75 0
31.25 1.75 0
32.25 1.75 0
33.25 1.75 0
34.25 1.75 0
35.25 1.75 0
36.25 1.75 0
37.25 1.75 0
38.25 1.75 0
39.25 1.75 0
40.25 1.75 0
41.25 1.75 0
42.25 1.75 0
43.25 1.75 0
44.25 1.75 0
45.25 1.75 0
46.25 1.75 0
47.25 1.75 0
48.25 1.75 0
49.25 1.75 0
0.75 2.25 0
1.75 2.25 0
2.75 2.25 0
3.75 2.25 0
4.75 2.25 0
5.75 2.25 0
6.75 2.25 0
7.75 2.25 0
8.75 2.25 0
9.75 2.25 0
10.75 2.25 0
11.75 2.25 0
12.75 2.25 0
13.75 2.25 0
14.75 2.25 0
15.75 2.25 0
16.75 2.25 0
17.75 2.25 0
18.75 2.25 0
19.75 2.25 0
20.75 2.25 0
21.75 2.25 0
22.75 2.25 0
23.75 2.25 0
24.75 2.25 0
25.75 2.25 0
26.75 2.25 0
27.75 2.25 0
28.75 2.25 0
29.75 2.25 0
30.75 2.25 0
31.75 2.25 0
32.75 2.25 0
33.75 2.25 0
34.75 2.25 0
35.75 2.25 0
36.75 2.25 0
37.75 2.25 0
38.75 2.25 0
39.75 2.25 0
40.75 2.25 0
41.75 2.25 0
42.75 2.25 0
43.75 2.25 0
44.75 2.25 0
45.75 2.25 0
46.75 2.25 0
47.75 2.25 0
48.75 2.25 0
49.75 2.25 0
0.25 2.75 0
1.25 2.75 0
2.25 2.75 0
3.25 2.75 0
4.25 2.75 0
5.25 2.75 0
6.25 2.75 0
7.25 2.75 0
8.25 2.75 0
9.25 2.75 0
10.25 2.75 0
11.25 2.75 0
12.25 2.75 0
13.25 2.75 0
14.25 2.75 0
15.25 2.75 0
16.25 2.75 0
17.25 2.75 0
18.25 2.75 0
19.25 2.75 0
20.25 2.75 0
21.25 2.75 0
22.25 2.75 0
23.25 2.75 0
24.25 2.75 0
25.25 2.75 0
26.25 2.75 0
27.25 2.75 0
28.25 2.75 0
29.25 2.75 0
30.25 2.75 0
31.25 2.75 0
32.25 2.75 0
33.25 2.75 0
34.25 2.75 0
35.25 2.75 0
36.25 2.75 0
37.25 2.75 0
38.25 2.75 0
39.25 2.75 0
40.25 2.75 0
41.25 2.75 0
42.25 2.75 0
43.25 2.75 0
44.25 2.75 0
45.25 2.75 0
46.25 2.75 0
47.25 2.75 0
48.25 2.75 0
49.25 2.75 0
0.75 3.25 0
1.75 3.25 0
2.75 3.25 0
3.75 3.25 0
4.75 3.25 0
5.75 3.25 0
6.75 3.25 0
7.75 3.25 0
8.75 3.25 0
9.75 3.25 0
10.75 3.25 0
11.75 3.25 0
12.75 3.25 0
13.75 3.25 0
14.75 3.25 0
15.75 3.25 0
16.75 3.25 0
17.75 3.25 0
18.75 3.25 0
19.75 3.25 0
20.75 3.25 0
21.75 3.25 0
22.75 3.25 0
23.75 3.25 0
24.75 3.25 0
25.75 3.25 0
26.75 3.25 0
27.75 3.25 0
28.75 3.25 0
29.75 3.25 0
30.75 3.25 0
31.75 3.25 0
32.75 3.25 0
33.75 3.25 0
34.75 3.25 0
35.75 3.25 0
36.75 3.25 0
37.75 3.25 0
38.75 3.25 0
39.75 3.25 0
40.75 3.25 0
41.75 3.25 0
42.75 3.25 0
43.75 3.25 0
44.75 3.25 0
45.75 3.25 0
46.75 3.25 0
47.75 3.25 0
48.75 3.25 0
49.75 3.25 0
0.25 3.75 0
1.25 3.75 0
2.25 3.75 0
3.25 3.75 0
4.25 3.75 0
5.25 3.75 0
6.25 3.75 0
7.25 3.75 0
8.25 3.75 0
9.25 3.75 0
10.25 3.75 0
11.25 3.75 0
12.25 3.75 0
13.25 3.75 0
14.25 3.75 0
15.25 3.75 0
16.25 3.75 0
17.25 3.75 0
18.25 3.75 0
19.25 3.75 0
20.25 3.75 0
21.25 3.75 0
22.25 3.75 0
23.25 3.75 0
24.25 3.75 0
25.25 3.75 0
26.25 3.75 0
27.25 3.75 0
28.25 3.75 0
29.25 3.75 0
30.25 3.75 0
31.25 3.75 0
32.25 3.75 0
33.25 3.75 0
34.25 3.75 0
35.25 3.75 0
36.25 3.75 0
37.25 3.75 0
38.25 3.75 0
39.25 3.75 0
40.25 3.75 0
41.25 3.75 0
42.25 3.75 0
43.25 3.75 0
44.25 3.75 0
45.25 3.75 0
46.25 3.75 0
47.25 3.75 0
48.25 3.75 0
49.25 3.75 0
0.75 4.25 0
1.75 4.25 0
2.75 4.25 0
3.75 4.25 0
4.75 4.25 0
5.75 4.25 0
6.75 4.25 0
7.75 4.25 0
8.75 4.25 0
9.75 4.25 0
10.75 4.25 0
11.75 4.25 0
12.75 4.25 0
13.75 4.25 0
14.75 4.25 0
15.75 4.25 0
16.75 4.25 0
17.75 4.25 0
18.75 4.25 0
19.75 4.25 0
20.75 4.25 0
21.75 4.25 0
22.75 4.25 0
23.75 4.25 0
24.75 4.25 0
25.75 4.25 0
26.75 4.25 0
27.75 4.25 0
28.75 4.25 0
29.75 4.25 0
30.75 4.25 0
31.75 4.25 0
32.75 4.25 0
33.75 4.25 0
34.75 4.25 0
35.75 4.25 0
36.75 4.25 0
37.75 4.25 0
38.75 4.25 0
39.75 4.25 0
40.75 4.25 0
41.75 4.25 0
42.75 4.25 0
43.75 4.25 0
44.75 4.25 0
45.75 4.25 0
46.75 4.25 0
47.75 4.25 0
48.75 4.25 0
49.75 4.25 0
0.25 4.75 0
1.25 4.75 0
2.25 4.75 0
3.25 4.75 0
4.25 4.75 0
5.25 4.75 0
6.25 4.75 0
7.25 4.75 0
8.25 4.75 0
9.25 4.75 0
10.25 4.75 0
11.25 4.75 0
12.25 4.75 0
13.25 4.75 0
14.25 4.75 0
15.25 4.75 0
16.25 4.75 0
17.25 4.75 0
18.25 4.75 0
19.25 4.75 0
20.25 4.75 0
21.25 4.75 0
22.25 4.75 0
23.25 4.75 0
24.25 4.75 0
25.25 4.75 0
26.25 4.75 0
27.25 4.75 0
28.25 4.75 0
29.25 4.75 0
30.25 4.75 0
31.25 4.75 0
32.25 4.75 0
33.25 4.75 0
34.25 4.75 0
35.25 4.75 0
36.25 4.75 0
37.25 4.75 0
38.25 4.75 0
39.25 4.75 0
40.25 4.75 0
41.25 4.75 0
42.25 4.75 0
43.25 4.75 0
44.25 4.75 0
45.25 4.75 0
46.25 4.75 0
47.25 4.75 0
48.25 4.75 0
49.25 4.75 0
0.75 5.25 0
1.75 5.25 0
2.75 5.25 0
3.75 5.25 0
4.75 5.25 0
5.75 5.25 0
6.75 5.25 0
7.75 5.25 0
8.75 5.25 0
9.75 5.25 0
10.75 5.25 0
11.75 5.25 0
12.75 5.25 0
13.75 5.25 0
14.75 5.25 0
15.75 5.25 0
16.75 5.25 0
17.75 5.25 0
18.75 5.25 0
19.75 5.25 0
20.75 5.25 0
21.75 5.25 0
22.75 5.25 0
23.75 5.25 0
24.75 5.25 0
25.75 5.25 0
26.75 5.25 0
27.75 5.25 0
28.75 5.25 0
29.75 5.25 0
30.75 5.25 0
31.75 5.25 0
32.75 5.25 0
33.75 5.25 0
34.75 5.25 0
35.75 5.25 0
36.75 5.25 0
37.75 5.25 0
38.75 5.25 0
39.75 5.25 0
40.75 5.25 0
41.75 5.25 0
42.75 5.25 0
43.75 5.25 0
44.75 5.25 0
45.75 5.25 0
46.75 5.25 0
47.75 5.25 0
48.75 5.25 0
49.75 5.25 0
0.25 5.75 0
1.25 5.75 0
2.25 5.75 0
3.25 5.75 0
4.25 5.75 0
5.25 5.75 0
6.25 5.75 0
7.25 5.75 0
8.25 5.75 0
9.25 5.75 0
10.25 5.75 0
11.25 5.75 0
12.25 5.75 0
13.25 5.75 0
14.25 5.75 0
15.25 5.75 0
16.25 5.75 0
17.25 5.75 0
18.25 5.75 0
19.25 5.75 0
20.25 5.75 0
21.25 5.75 0
22.25 5.75 0
23.25 5.75 0
24.25 5.75 0
25.25 5.75 0
26.25 5.75 0
27.25 5.75 0
28.25 5.75 0
29.25 5.75 0
30.25 5.75 0
31.25 5.75 0
32.25 5.75 0
33.25 5.75 0
34.25 5.75 0
35.25 5.75 0
36.25 5.75 0
37.25 5.75 0
38.25 5.75 0
39.25 5.75 0
40.25 5.75 0
41.25 5.75 0
42.25 5.75 0
43.25 5.75 0
44.25 5.75 0
45.25 5.75 0
46.25 5.75 0
47.25 5.75 0
48.25 5.75 0
49.25 5.75 0
0.75 6.25 0
1.75 6.25 0
2.75 6.25 0
3.75 6.25 0
4.75 6.25 0
5.75 6.25 0
6.75 6.25 0
7.75 6.25 0
8.75 6.25 0
9.75 6.25 0
10.75 6.25 0
11.75 6.25 0
12.75 6.25 0
13.75 6.25 0
14.75 6.25 0
15.75 6.25 0
16.75 6.25 0
17.75 6.25 0
18.75 6.25 0
19.75 6.25 0
20.75 6.25 0
21.75 6.25 0
22.75 6.25 0
23.75 6.25 0
24.75 6.25 0
25.75 6.25 0
26.75 6.25 0
27.75 6.25 0
28.75 6.25 0
29.75 6.25 0
30.75 6.25 0
31.75 6.25 0
32.75 6.25 0
33.75 6.25 0
34.75 6.25 0
35.75 6.25 0
36.75 6.25 0
37.75 6.25 0
38.75 6.25 0
39.75 6.25 0
40.75 6.25 0
41.75 6.25 0
42.75 6.25 0
43.75 6.25 0
44.75 6.25 0
45.75 6.25 0
46.75 6.25 0
47.75 6.25 0
48.75 6.25 0
49.75 6.25 0
0.25 6.75 0
1.25 6.75 0
2.25 6.75 0
3.25 6.75 0
4.25 6.75 0
5.25 6.75 0
6.25 6.75 0
7.25 6.75 0
8.25 6.75 0
9.25 6.75 0
10.25 6.75 0
11.25 6.75 0
12.25 6.75 0
13.25 6.75 0
14.25 6.75 0
15.25 6.75 0
16.25 6.75 0
17.25 6.75 0
18.25 6.75 0
19.25 6.75 0
20.25 6.75 0
21.25 6.75 0
22.25 6.75 0
23.25 6.75 0
24.25 6.75 0
25.25 6.75 0
26.25 6.75 0
27.25 6.75 0
28.25 6.75 0
29.25 6.75 0
30.25 6.75 0
31.25 6.75 0
32.25 6.75 0
33.25 6.75 0
34.25 6.75 0
35.25 6.75 0
36.25 6.75 0
37.25 6.75 0
38.25 6.75 0
39.25 6.75 0
40.25 6.75 0
41.25 6.75 0
42.25 6.75 0
43.25 6.75 0
44.25 6.75 0
45.25 6.75 0
46.25 6.75 0
47.25 6.75 0
48.25 6.75 0
49.25 6.75 0
0.75 7.25 0
1.75 7.25 0
2.75 7.25 0
3.75 7.25 0
4.75 7.25 0
5.75 7.25 0
6.75 7.25 0
7.75 7.25 0
8.75 7.25 0
9.75 7.25 0
10.75 7.25 0
11.75 7.25 0
12.75 7.25 0
13.75 7.25 0
14.75 7.25 0
15.75 7.25 0
16.75 7.25 0
17.75 7.25 0
18.75 7.25 0
19.75 7.25 0
20.75 7.25 0
21.75 7.25 0
22.75 7.25 0
23.75 7.25 0
24.75 7.25 0
25.75 7.25 0
26.75 7.25 0
27.75 7.25 0
28.75 7.25 0
29.75 7.25 0
30.75 7.25 0
31.75 7.25 0
32.75 7.25 0
33.75 7.25 0
34.75 7.25 0
35.75 7.25 0
36.75 7.25 0
37.75 7.25 0
38.75 7.25 0
39.75 7.25 0
40.75 7.25 0
41.75 7.25 0
42.75 7.25 0
43.75 7.25 0
44.75 7.25 0
45.75 7.25 0
46.75 7.25 0
47.75 7.25 0
48.75 7.25 0
49.75 7.25 0
0.25 7.75 0
1.25 7.75 0
2.25 7.75 0
3.25 7.75 0
4.25 7.75 0
5.25 7.75 0
6.25 7.75 0
7.25 7.75 0
8.25 7.75 0
9.25 7.75 0
10.25 7.75 0
11.25 7.75 0
12.25 7.75 0
13.25 7.75 0
14.25 7.75 0
15.25 7.75 0
16.25 7.75 0
17.25 7.75 0
18.25 7.75 0
19.25 7.75 0
20.25 7.75 0
21.25 7.75 0
[...]
POINT_DATA 5000
VECTORS velocity float
0.466331 0.40076 0.788624
0.546607 0.300615 0.78157
0.638734 0.176739 0.748854
0.724366 0.0314178 0.688699
0.787586 -0.128476 0.602663
0.817539 -0.292271 0.496193
0.809799 -0.448947 0.377719
0.765671 -0.589735 0.256829
0.690404 -0.709198 0.142759
0.591436 -0.805179 0.0434705
0.477078 -0.878168 -0.0348845
0.355606 -0.930455 -0.0883079
0.234569 -0.965259 -0.115118
0.120263 -0.985958 -0.115862
0.0173579 -0.995518 -0.0929655
-0.0712625 -0.996195 -0.05017
-0.144448 -0.989479 0.0080867
-0.20255 -0.976221 0.07724
-0.24707 -0.956838 0.153026
-0.280278 -0.931525 0.231742
-0.304842 -0.900417 0.310356
-0.323519 -0.863687 0.386498
-0.338928 -0.821597 0.458374
-0.353389 -0.774501 0.524656
-0.368828 -0.722838 0.584355
-0.386727 -0.667107 0.636719
-0.408099 -0.607853 0.681153
-0.433494 -0.545653 0.71718
-0.463007 -0.481098 0.744425
-0.49632 -0.41479 0.762638
-0.532742 -0.347324 0.77172
-0.571288 -0.27929 0.771769
-0.610762 -0.211263 0.76311
-0.649866 -0.14381 0.746319
-0.687312 -0.0774946 0.722217
-0.72194 -0.0128843 0.691836
-0.752827 0.0494599 0.656357
-0.77937 0.109005 0.617009
-0.801326 0.165287 0.57494
-0.818812 0.217968 0.531071
-0.832243 0.266889 0.485944
-0.842219 0.312139 0.439587
-0.849361 0.354104 0.391404
-0.854085 0.393535 0.340102
-0.85627 0.43165 0.28369
-0.854725 0.470346 0.219589
-0.846302 0.512564 0.14509
-0.824609 0.562661 0.0585791
-0.779242 0.62556 -0.0381583
-0.699986 0.699986 -0.141563
0.40076 0.466331 0.788624
0.466335 0.376251 0.800605
0.564929 0.259459 0.783286
0.667252 0.122119 0.734753
0.753429 -0.0321785 0.656741
0.809191 -0.195011 0.554238
0.827089 -0.355611 0.435276
0.8062 -0.504293 0.309403
0.750355 -0.63431 0.18606
0.66612 -0.742201 0.0736265
0.561318 -0.827333 -0.0210247
0.444096 -0.89116 -0.0928069
0.3223 -0.936426 -0.138666
0.202951 -0.966404 -0.157713
0.0917868 -0.984244 -0.151123
-0.00707454 -0.992534 -0.121765
-0.0912778 -0.993099 -0.0736456
-0.160161 -0.987026 -0.0112923
-0.214502 -0.97483 0.0607832
-0.256158 -0.956665 0.138474
-0.287659 -0.932524 0.218291
-0.311838 -0.902383 0.297426
-0.331522 -0.866277 0.373706
-0.349296 -0.824344 0.445477
-0.367347 -0.776819 0.511477
-0.387366 -0.724039 0.570714
-0.410499 -0.666433 0.622381
-0.437331 -0.604515 0.66581
-0.467904 -0.538882 0.700479
-0.501779 -0.470198 0.726038
-0.53812 -0.399169 0.742355
-0.575808 -0.326517 0.749555
-0.613567 -0.252958 0.748029
-0.650096 -0.179191 0.738421
-0.684177 -0.10591 0.721585
-0.714776 -0.0338229 0.698535
-0.741126 0.0363375 0.670381
-0.762787 0.103819 0.638261
-0.779679 0.167897 0.603251
-0.792079 0.227943 0.566262
-0.80057 0.283516 0.527926
-0.805944 0.334449 0.488465
-0.809053 0.380928 0.44758
-0.810619 0.42355 0.404354
-0.810985 0.463376 0.357192
-0.809733 0.502028 0.303809
-0.80508 0.541865 0.241307
-0.792816 0.586288 0.166461
-0.76465 0.639913 0.0763034
-0.706799 0.706799 -0.0294899
0.376251 0.466335 0.800605
0.472724 0.367131 0.801091
0.586736 0.241563 0.772909
0.695492 0.0957094 0.712131
0.78037 -0.0645342 0.621979
0.829386 -0.229155 0.509516
0.8381 -0.387345 0.384126
0.808207 -0.530533 0.255609
0.74517 -0.653506 0.132861
0.656214 -0.754213 0.0233795
0.549154 -0.833043 -0.0668583
0.431774 -0.892043 -0.133532
0.31142 -0.934172 -0.174187
0.194599 -0.962625 -0.188372
0.0865722 -0.980296 -0.177555
-0.00897383 -0.989425 -0.14477
-0.0900738 -0.991482 -0.0940721
-0.156418 -0.987237 -0.0299367
-0.209097 -0.976938 0.0432559
-0.250226 -0.960523 0.121581
-0.282534 -0.937802 0.201748
-0.308971 -0.908574 0.281123
-0.332388 -0.872701 0.357648
-0.355291 -0.830139 0.429695
-0.379667 -0.780964 0.495931
-0.406868 -0.725398 0.555208
-0.437558 -0.663839 0.606516
-0.471719 -0.596886 0.649006
-0.508723 -0.525345 0.682065
-0.54747 -0.450189 0.705412
-0.586574 -0.372483 0.719157
-0.624565 -0.293299 0.723806
-0.660063 -0.213637 0.720192
-0.691909 -0.134405 0.709364
-0.719235 -0.0564307 0.692472
-0.741505 0.0194883 0.670664
-0.758531 0.0925579 0.64503
-0.770472 0.161994 0.616548
-0.777818 0.227076 0.586033
-0.78134 0.287242 0.554076
-0.781997 0.342186 0.520951
-0.780812 0.391952 0.486525
-0.778706 0.437006 0.450158
-0.776295 0.478276 0.410631
-0.773618 0.5172 0.366088
-0.769715 0.555824 0.314004
-0.761881 0.597032 0.251178
-0.744203 0.644943 0.173812
-0.704921 0.704921 0.0785725
-0.62556 0.779242 -0.0381583
0.300615 0.546607 0.78157
0.367131 0.472724 0.801091
0.485804 0.367355 0.793123
0.612592 0.235542 0.754487
0.725629 0.0832275 0.683034
0.808076 -0.0812337 0.58345
0.850672 -0.246615 0.46426
0.851787 -0.402412 0.335445
0.815142 -0.541204 0.2065
0.747197 -0.659073 0.0855551
0.655387 -0.755009 -0.0207091
0.547298 -0.830071 -0.10699
0.430317 -0.886629 -0.169459
0.311382 -0.927687 -0.206004
0.196634 -0.956295 -0.216415
0.0910076 -0.975081 -0.202323
-0.00211209 -0.985978 -0.166862
-0.0810624 -0.990155 -0.114115
-0.145839 -0.988118 -0.048514
-0.197829 -0.9799 0.0256732
-0.239418 -0.965257 0.104682
-0.273544 -0.943823 0.185398
-0.303295 -0.915211 0.265333
-0.331547 -0.879073 0.342501
-0.360698 -0.835146 0.415245
-0.392458 -0.783308 0.482084
-0.427712 -0.72367 0.541631
-0.466476 -0.656668 0.59261
-0.507956 -0.583136 0.633982
-0.550728 -0.504296 0.66512
-0.593023 -0.421654 0.685953
-0.633041 -0.336806 0.697008
-0.669215 -0.251251 0.699303
-0.70037 -0.166261 0.694147
-0.725777 -0.0828713 0.68292
-0.745132 -0.00194026 0.666914
-0.758513 0.0757565 0.647239
-0.76634 0.149475 0.624804
-0.769331 0.218514 0.600318
-0.768451 0.282288 0.574279
-0.76483 0.340428 0.54694
-0.759648 0.392887 0.518242
-0.753985 0.440023 0.487736
-0.748653 0.482644 0.454503
-0.743984 0.52204 0.417088
-0.739531 0.56003 0.373443
-0.733556 0.599118 0.320864
-0.721973 0.642835 0.255963
-0.696146 0.696146 0.17539
-0.639913 0.76465 0.0763034
0.259459 0.564929 0.783286
0.367355 0.485804 0.793123
0.504841 0.376077 0.776983
0.641715 0.239141 0.728707
0.757108 0.0818796 0.648138
0.836385 -0.0852856 0.541467
0.873166 -0.250516 0.418119
0.86825 -0.403964 0.288021
0.82675 -0.539343 0.159981
0.755567 -0.653767 0.0413161
0.66202 -0.746923 -0.0619385
0.553362 -0.820243 -0.144884
0.436653 -0.876215 -0.203917
0.318579 -0.917774 -0.237062
0.20509 -0.947783 -0.244225
0.100954 -0.968611 -0.227157
0.00935408 -0.981914 -0.189096
-0.0682967 -0.988599 -0.134192
-0.132292 -0.988952 -0.0668754
-0.184337 -0.982825 0.00866138
-0.227118 -0.969812 0.0887843
-0.263821 -0.949378 0.170526
-0.297681 -0.920937 0.251517
-0.331589 -0.8839 0.329803
-0.367775 -0.837746 0.403636
-0.407551 -0.782152 0.471318
-0.451158 -0.717166 0.531158
-0.497761 -0.643405 0.581605
-0.545633 -0.562156 0.621502
-0.592535 -0.475305 0.650375
-0.636184 -0.385066 0.668576
-0.674674 -0.293614 0.677205
-0.706704 -0.20279 0.677824
-0.731621 -0.113985 0.672114
-0.749331 -0.0281998 0.661595
-0.760177 0.0538005 0.647485
-0.764843 0.131352 0.630684
-0.764284 0.203835 0.611818
-0.759669 0.27071 0.591286
-0.752304 0.331606 0.569277
-0.743525 0.386432 0.545749
-0.734566 0.435469 0.520365
-0.726404 0.479428 0.492429
-0.719585 0.519472 0.460811
-0.714001 0.55724 0.423894
-0.708539 0.594931 0.379512
-0.700363 0.635546 0.32492
-0.683317 0.683317 0.25721
-0.644943 0.744203 0.173812
-0.562661 0.824609 0.0585791
0.176739 0.638734 0.748854
0.241563 0.586736 0.772909
0.376077 0.504841 0.776983
0.528871 0.391605 0.752955
0.673069 0.250307 0.695934
0.788983 0.0894597 0.607868
0.864571 -0.0790543 0.496254
0.896245 -0.243383 0.370824
0.886707 -0.394583 0.240947
0.841852 -0.52741 0.114561
0.768585 -0.639746 -0.00174332
0.6739 -0.7317 -0.10234
0.564718 -0.804858 -0.182475
0.447888 -0.861678 -0.238554
0.330007 -0.904955 -0.268609
0.217002 -0.937333 -0.272612
0.113582 -0.960921 -0.252446
0.02279 -0.977111 -0.211505
-0.0542061 -0.986574 -0.154056
-0.118028 -0.989402 -0.0845736
-0.170744 -0.985289 -0.00720599
-0.215383 -0.973682 0.0745239
-0.255403 -0.953874 0.157779
-0.294187 -0.925052 0.240275
-0.334591 -0.886352 0.320044
-0.378557 -0.836974 0.395181
-0.426811 -0.776414 0.463695
-0.478708 -0.704786 0.52356
-0.532343 -0.623123 0.573
-0.584979 -0.533457 0.61092
-0.633704 -0.438563 0.637245
-0.676072 -0.341416 0.652964
-0.710495 -0.24464 0.659809
-0.736299 -0.150189 0.659778
-0.753564 -0.0593501 0.65469
-0.762893 0.0270525 0.645958
-0.765246 0.108423 0.634541
-0.761828 0.18425 0.621024
-0.754024 0.254077 0.605717
-0.743328 0.317577 0.588734
-0.731246 0.374656 0.57001
-0.719171 0.425555 0.549269
-0.708239 0.47091 0.525968
-0.699174 0.511785 0.49923
-0.692118 0.549676 0.467792
-0.686373 0.586543 0.429952
-0.679937 0.624954 0.383559
-0.66842 0.66842 0.326237
-0.642835 0.721973 0.255963
-0.586288 0.792816 0.166461
0.122119 0.667252 0.734753
0.235542 0.612592 0.754487
0.391605 0.528871 0.752955
0.556485 0.412433 0.721265
0.705251 0.267543 0.656538
0.820044 0.104433 0.562692
0.891673 -0.064212 0.448103
0.91903 -0.227023 0.322248
0.906128 -0.37609 0.193618
0.859112 -0.507079 0.0692592
0.784573 -0.618416 -0.044786
0.689078 -0.710426 -0.14306
0.57926 -0.784689 -0.220728
0.461889 -0.843534 -0.274061
0.343633 -0.889549 -0.301028
0.230511 -0.925125 -0.301677
0.127247 -0.952094 -0.278074
0.0367519 -0.971584 -0.233826
-0.0400842 -0.98404 -0.173372
-0.104262 -0.989382 -0.101258
-0.158265 -0.98716 -0.0216018
-0.205502 -0.97668 0.0621755
-0.249708 -0.957044 0.147351
-0.294376 -0.927179 0.231694
-0.342222 -0.885898 0.31316
-0.394712 -0.832112 0.389605
-0.451704 -0.765228 0.458682
-0.511373 -0.685661 0.51804
-0.570578 -0.595204 0.565838
-0.625667 -0.49695 0.601316
-0.673429 -0.394675 0.62508
-0.711761 -0.29197 0.638866
-0.739825 -0.191602 0.64494
-0.75781 -0.0953473 0.645471
-0.766578 -0.0042107 0.642137
-0.767379 0.0812292 0.636028
-0.761688 0.160559 0.627735
-0.751129 0.233429 0.617508
-0.737404 0.299581 0.605382
-0.722205 0.358951 0.591248
-0.707098 0.411768 0.574856
-0.693386 0.458629 0.555766
-0.68196 0.500525 0.533296
-0.673161 0.538841 0.506462
-0.666592 0.575356 0.473942
-0.660806 0.612307 0.434068
-0.652613 0.652613 0.384959
-0.635546 0.700363 0.32492
-0.597032 0.761881 0.251178
-0.512564 0.846302 0.14509
0.0314178 0.724366 0.688699
0.0957094 0.695492 0.712131
0.239141 0.641715 0.728707
0.412433 0.556485 0.721265
0.586113 0.437041 0.682251
0.736803 0.289443 0.611018
0.849106 0.125382 0.513125
0.916724 -0.0422713 0.397279
0.940565 -0.203004 0.272262
0.925382 -0.349983 0.145534
0.877144 -0.479658 0.0233536
0.801916 -0.590835 -0.0885755
0.705797 -0.683902 -0.184742
0.595212 -0.760321 -0.260068
0.47698 -0.822204 -0.310596
0.357959 -0.871869 -0.334231
0.24434 -0.911396 -0.331141
0.140882 -0.942313 -0.303642
0.0503343 -0.965467 -0.255616
-0.0267481 -0.981088 -0.191705
-0.0918065 -0.988933 -0.116543
-0.147784 -0.988428 -0.0342151
-0.198488 -0.978725 0.0519596
-0.247912 -0.958707 0.139355
-0.299576 -0.92698 0.225748
-0.355878 -0.88199 0.30894
-0.417514 -0.822392 0.386463
-0.483111 -0.747699 0.455576
-0.549377 -0.659002 0.513714
-0.611926 -0.559282 0.559241
-0.666563 -0.452927 0.592073
-0.710375 -0.3446 0.613693
-0.742137 -0.238139 0.626516
-0.76205 -0.136071 0.63306
-0.771215 -0.0397581 0.635332
-0.771194 0.0501484 0.634622
-0.763765 0.133305 0.63158
-0.750815 0.209464 0.62642
-0.73428 0.278455 0.619108
-0.716067 0.340263 0.609483
-0.697934 0.395133 0.597292
-0.681365 0.443648 0.582167
-0.667423 0.486755 0.563574
-0.656626 0.525765 0.540753
-0.648805 0.56232 0.512687
-0.642901 0.598418 0.478094
-0.636525 0.636525 0.435513
-0.624954 0.679937 0.383559
-0.599118 0.733556 0.320864
-0.541865 0.80508 0.241307
-0.0321785 0.753429 0.656741
0.0832275 0.725629 0.683034
0.250307 0.673069 0.695934
0.437041 0.586113 0.682251
0.616201 0.463935 0.636443
0.766394 0.314648 0.560033
0.875137 0.150955 0.459726
0.938844 -0.0146307 0.344033
0.959917 -0.172707 0.220752
0.943346 -0.317524 0.0963154
0.894613 -0.446217 -0.0236445
0.819123 -0.557855 -0.133549
0.722519 -0.652794 -0.227653
0.6111 -0.732284 -0.300527
0.491841 -0.798133 -0.34796
0.371872 -0.852299 -0.367827
0.25759 -0.896489 -0.360492
0.15376 -0.931873 -0.32859
0.062915 -0.959003 -0.276324
-0.0147962 -0.977898 -0.208559
-0.0813114 -0.988173 -0.13001
-0.140066 -0.989132 -0.0447217
-0.195263 -0.979759 0.0440901
-0.251099 -0.958659 0.133872
-0.310976 -0.924042 0.222352
-0.376698 -0.873954 0.307088
-0.447777 -0.806912 0.385212
-0.521194 -0.722893 0.453632
-0.592025 -0.624191 0.509796
-0.654945 -0.515381 0.552656
-0.705889 -0.402138 0.5831
-0.742926 -0.289608 0.60348
-0.766096 -0.181378 0.616603
-0.776696 -0.0794103 0.62485
-0.776624 0.0154385 0.629776
-0.767995 0.10284 0.632146
-0.752999 0.182638 0.632167
-0.733841 0.254751 0.629746
-0.712666 0.319227 0.624661
-0.691457 0.376346 0.616645
-0.6719 0.426698 0.605375
-0.655244 0.471216 0.590432
-0.642182 0.511161 0.571241
-0.632734 0.548088 0.547034
-0.626122 0.583819 0.516842
-0.620496 0.620496 0.479552
-0.612307 0.660806 0.434068
-0.594931 0.708539 0.379512
-0.555824 0.769715 0.314004
-0.470346 0.854725 0.219589
-0.128476 0.787586 0.602663
-0.0645342 0.78037 0.621979
0.0818796 0.757108 0.648138
0.267543 0.705251 0.656538
0.463935 0.616201 0.636443
0.645344 0.491725 0.584583
0.792924 0.341891 0.504364
0.89731 0.179891 0.40308
0.957286 0.0174326 0.288616
0.976228 -0.137361 0.167662
0.958964 -0.279815 0.0457246
0.910278 -0.40769 -0.0719918
0.834858 -0.520257 -0.179847
0.73792 -0.617764 -0.271737
0.625714 -0.701168 -0.341827
0.505446 -0.771865 -0.38568
0.384553 -0.831353 -0.401213
0.269619 -0.880871 -0.389065
0.165362 -0.92118 -0.352254
0.0740179 -0.952522 -0.295336
-0.00473496 -0.974716 -0.223399
-0.0733772 -0.987255 -0.141223
-0.135852 -0.989321 -0.0527984
-0.196731 -0.979691 0.0387594
-0.26031 -0.956605 0.13094
-0.329636 -0.917793 0.22135
-0.405504 -0.860919 0.307221
-0.485721 -0.784634 0.385259
-0.565258 -0.689948 0.452168
-0.6377 -0.580961 0.505789
-0.697491 -0.46404 0.546052
-0.741564 -0.345765 0.574917
-0.769513 -0.231139 0.595336
-0.782742 -0.123045 0.610062
-0.783494 -0.0227357 0.620983
-0.774273 0.0693894 0.629036
-0.757614 0.153242 0.634459
-0.736024 0.228828 0.637108
-0.711928 0.296264 0.636699
-0.687566 0.355878 0.632933
-0.664855 0.408283 0.625518
-0.645254 0.45442 0.614125
-0.629638 0.495531 0.598336
-0.618206 0.533113 0.577592
-0.610392 0.568871 0.551187
-0.604718 0.604718 0.518297
-0.598418 0.642901 0.478094
-0.586543 0.686373 0.429952
-0.56003 0.739531 0.373443
-0.502028 0.809733 0.303809
-0.195011 0.809191 0.554238
-0.0812337 0.808076 0.58345
0.0894597 0.788983 0.607868
0.289443 0.736803 0.611018
0.491725 0.645344 0.584583
0.672378 0.519196 0.527582
0.815576 0.37005 0.444859
0.915031 0.211056 0.343765
0.971454 0.0527673 0.231283
0.988742 -0.0980746 0.113005
0.971276 -0.23787 -0.00631755
0.923024 -0.364982 -0.121716
0.847949 -0.478851 -0.227343
0.750884 -0.579568 -0.316661
0.638086 -0.667696 -0.383442
0.51702 -0.744103 -0.423086
0.395413 -0.809692 -0.433644
0.279978 -0.865139 -0.41611
0.175302 -0.910738 -0.373931
0.0832483 -0.946418 -0.312029
0.00296569 -0.971821 -0.235703
-0.0685998 -0.986337 -0.14978
-0.135897 -0.989013 -0.0581807
-0.203804 -0.978347 0.0360759
-0.27654 -0.952102 0.130487
-0.356426 -0.907451 0.222471
-0.442672 -0.84181 0.308865
-0.53081 -0.75448 0.386006
-0.613681 -0.648274 0.450707
-0.684017 -0.529587 0.501655
-0.737083 -0.406337 0.539999
-0.771592 -0.285275 0.568563
-0.788865 -0.17062 0.590408
-0.791488 -0.0643037 0.607793
-0.782401 0.0330743 0.621896
-0.764544 0.121449 0.633027
-0.740771 0.200911 0.64101
-0.713822 0.271651 0.645496
-0.68623 0.334047 0.646143
-0.660185 0.388754 0.642671
-0.637386 0.436733 0.634826
-0.61891 0.479232 0.622325
-0.605134 0.51772 0.604796
-0.595676 0.553831 0.581758
-0.589319 0.589319 0.552635
-0.583819 0.626122 0.516842
-0.575356 0.666592 0.473942
-0.55724 0.714001 0.423894
-0.5172 0.773618 0.366088
-0.43165 0.85627 0.28369
-0.292271 0.817539 0.496193
-0.229155 0.829386 0.509516
-0.0852856 0.836385 0.541467
0.104433 0.820044 0.562692
0.314648 0.766394 0.560033
0.519196 0.672378 0.527582
0.69643 0.545362 0.466439
0.833817 0.398182 0.382361
0.927912 0.243456 0.282327
0.980894 0.090337 0.172297
0.996816 -0.0558851 0.0568807
0.97944 -0.192691 -0.0597288
0.931883 -0.319052 -0.172628
0.857413 -0.43457 -0.275666
0.760525 -0.539125 -0.361866
0.647498 -0.632778 -0.424662
0.52603 -0.71572 -0.459388
0.404071 -0.78812 -0.46432
0.288371 -0.849986 -0.440869
0.183294 -0.901109 -0.392946
0.09026 -0.941109 -0.325833
0.0078444 -0.969484 -0.245029
-0.0675961 -0.985538 -0.155386
-0.14099 -0.988146 -0.0607379
-0.217409 -0.975417 0.0359956
-0.300705 -0.944498 0.13229
-0.39192 -0.891983 0.225311
-0.487951 -0.815402 0.311486
-0.581606 -0.71553 0.386977
-0.663992 -0.597805 0.449158
-0.728167 -0.470984 0.497943
-0.771322 -0.34377 0.535616
-0.794352 -0.222208 0.565357
-0.800119 -0.109314 0.589797
-0.792062 -0.00609646 0.61041
-0.773595 0.0873291 0.627634
-0.747977 0.171123 0.641285
-0.718305 0.245555 0.650954
-0.687445 0.311064 0.656245
-0.6579 0.368351 0.656875
-0.631642 0.418416 0.652653
-0.609988 0.462529 0.643414
-0.593505 0.502159 0.628958
-0.58198 0.538897 0.609006
-0.5744 0.5744 0.583206
-0.568871 0.610392 0.551187
-0.56232 0.648805 0.512687
-0.549676 0.692118 0.467792
-0.52204 0.743984 0.417088
-0.463376 0.810985 0.357192
-0.355611 0.827089 0.435276
-0.246615 0.850672 0.46426
-0.0790543 0.864571 0.496254
0.125382 0.849106 0.513125
0.341891 0.792924 0.504364
0.545362 0.69643 0.466439
0.716913 0.569485 0.402147
0.847365 0.425531 0.317642
0.935746 0.276239 0.219253
0.985282 0.129193 0.111929
0.99993 -0.0118051 -0.00052212
0.982762 -0.145331 -0.114267
0.936077 -0.270983 -0.22434
0.862503 -0.388523 -0.324252
0.766219 -0.497551 -0.406634
0.653498 -0.597506 -0.464679
0.532184 -0.687737 -0.493758
0.410338 -0.767537 -0.492453
0.294632 -0.836155 -0.462641
0.189123 -0.892856 -0.408706
0.0947276 -0.936981 -0.336294
0.00942186 -0.96792 -0.251082
-0.0710266 -0.984893 -0.157925
-0.151967 -0.98653 -0.0605364
-0.238472 -0.970395 0.0382812
-0.333564 -0.932872 0.13596
-0.436225 -0.870113 0.229369
-0.540263 -0.780476 0.314601
-0.635738 -0.667299 0.388006
-0.713154 -0.539181 0.44799
-0.767365 -0.406629 0.495785
-0.798237 -0.278008 0.534349
-0.808724 -0.157966 0.566579
-0.80281 -0.0482536 0.594279
-0.78448 0.0508298 0.618068
-0.757473 0.139482 0.637792
-0.725297 0.218054 0.65299
-0.691194 0.287054 0.663212
-0.658018 0.34724 0.66816
-0.628061 0.39966 0.667691
-0.60291 0.445624 0.661754
-0.583352 0.486624 0.650306
-0.56935 0.524236 0.633259
-0.560058 0.560058 0.610466
-0.553831 0.595676 0.581758
-0.548088 0.632734 0.547034
-0.538841 0.673161 0.506462
-0.519472 0.719585 0.460811
-0.478276 0.776295 0.410631
-0.393535 0.854085 0.340102
-0.448947 0.809799 0.377719
-0.387345 0.8381 0.384126
-0.250516 0.873166 0.418119
-0.064212 0.891673 0.448103
0.150955 0.875137 0.459726
0.37005 0.815576 0.444859
0.569485 0.716913 0.402147
0.733501 0.591057 0.335602
0.856131 0.451507 0.251359
0.938464 0.308664 0.154961
0.98442 0.168438 0.050462
0.997713 0.0331305 -0.05892
0.980743 -0.0969414 -0.169543
0.935075 -0.222017 -0.276301
0.862761 -0.342 -0.372398
0.767652 -0.45614 -0.450162
0.655924 -0.563109 -0.502666
0.53543 -0.661257 -0.525409
0.414193 -0.748868 -0.517341
0.298693 -0.824366 -0.480835
0.192607 -0.886487 -0.420764
0.096313 -0.934336 -0.343133
0.00717265 -0.967235 -0.253781
-0.0796155 -0.984302 -0.157515
-0.169719 -0.983792 -0.0578721
-0.267884 -0.962513 0.0425025
-0.375588 -0.916001 0.140983
-0.488755 -0.840412 0.23415
-0.597551 -0.736087 0.317976
-0.690082 -0.610009 0.389455
-0.758014 -0.473754 0.448299
-0.799258 -0.338308 0.496724
-0.816438 -0.210625 0.537649
-0.814064 -0.0936999 0.573166
-0.796813 0.0117485 0.604112
-0.769015 0.105881 0.630401
-0.734661 0.189122 0.651541
-0.697421 0.262057 0.667031
-0.660543 0.32551 0.676555
-0.626681 0.380593 0.680015
-0.597735 0.428671 0.677462
-0.574741 0.471274 0.669009
-0.557856 0.509994 0.654754
-0.546396 0.546396 0.634747
-0.538897 0.58198 0.609006
-0.533113 0.618206 0.577592
-0.525765 0.656626 0.540753
-0.511785 0.699174 0.49923
-0.482644 0.748653 0.454503
-0.42355 0.810619 0.404354
-0.504293 0.8062 0.309403
-0.402412 0.851787 0.335445
-0.243383 0.896245 0.370824
-0.0422713 0.916724 0.397279