# vtk DataFile Version 2.0
tmp/0.000.00-10.000.000.001.0054.vtk
ASCII
DATASET UNSTRUCTURED_GRID
POINTS 5100 float
0.5 0 0
1.5 0 0
2.5 0 0
3.5 0 0
4.5 0 0
5.5 0 0
6.5 0 0
7.5 0 0
8.5 0 0
9.5 0 0
10.5 0 0
11.5 0 0
12.5 0 0
13.5 0 0
14.5 0 0
15.5 0 0
16.5 0 0
17.5 0 0
18.5 0 0
19.5 0 0
20.5 0 0
21.5 0 0
22.5 0 0
23.5 0 0
24.5 0 0
25.5 0 0
26.5 0 0
27.5 0 0
28.5 0 0
29.5 0 0
30.5 0 0
31.5 0 0
32.5 0 0
33.5 0 0
34.5 0 0
35.5 0 0
36.5 0 0
37.5 0 0
38.5 0 0
39.5 0 0
40.5 0 0
41.5 0 0
42.5 0 0
43.5 0 0
44.5 0 0
45.5 0 0
46.5 0 0
47.5 0 0
48.5 0 0
49.5 0 0
0 0.5 0
1 0.5 0
2 0.5 0
3 0.5 0
4 0.5 0
5 0.5 0
6 0.5 0
7 0.5 0
8 0.5 0
9 0.5 0
10 0.5 0
11 0.5 0
12 0.5 0
13 0.5 0
14 0.5 0
15 0.5 0
16 0.5 0
17 0.5 0
18 0.5 0
19 0.5 0
20 0.5 0
21 0.5 0
22 0.5 0
23 0.5 0
24 0.5 0
25 0.5 0
26 0.5 0
27 0.5 0
28 0.5 0
29 0.5 0
30 0.5 0
31 0.5 0
32 0.5 0
33 0.5 0
34 0.5 0
35 0.5 0
36 0.5 0
37 0.5 0
38 0.5 0
39 0.5 0
40 0.5 0
41 0.5 0
42 0.5 0
43 0.5 0
44 0.5 0
45 0.5 0
46 0.5 0
47 0.5 0
48 0.5 0
49 0.5 0
50 0.5 0
0.5 1 0
1.5 1 0
2.5 1 0
3.5 1 0
4.5 1 0
5.5 1 0
6.5 1 0
7.5 1 0
8.5 1 0
9.5 1 0
10.5 1 0
11.5 1 0
12.5 1 0
13.5 1 0
14.5 1 0
15.5 1 0
16.5 1 0
17.5 1 0
18.5 1 0
19.5 1 0
20.5 1 0
21.5 1 0
22.5 1 0
23.5 1 0
24.5 1 0
25.5 1 0
26.5 1 0
27.5 1 0
28.5 1 0
29.5 1 0
30.5 1 0
31.5 1 0
32.5 1 0
33.5 1 0
34.5 1 0
35.5 1 0
36.5 1 0
37.5 1 0
38.5 1 0
39.5 1 0
40.5 1 0
41.5 1 0
42.5 1 0
43.5 1 0
44.5 1 0
45.5 1 0
46.5 1 0
47.5 1 0
48.5 1 0
49.5 1 0
0 1.5 0
1 1.5 0
2 1.5 0
3 1.5 0
4 1.5 0
5 1.5 0
6 1.5 0
7 1.5 0
8 1.5 0
9 1.5 0
10 1.5 0
11 1.5 0
12 1.5 0
13 1.5 0
14 1.5 0
15 1.5 0
16 1.5 0
17 1.5 0
18 1.5 0
19 1.5 0
20 1.5 0
21 1.5 0
22 1.5 0
23 1.5 0
24 1.5 0
25 1.5 0
26 1.5 0
27 1.5 0
28 1.5 0
29 1.5 0
30 1.5 0
31 1.5 0
32 1.5 0
33 1.5 0
34 1.5 0
35 1.5 0
36 1.5 0
37 1.5 0
38 1.5 0
39 1.5 0
40 1.5 0
41 1.5 0
42 1.5 0
43 1.5 0
44 1.5 0
45 1.5 0
46 1.5 0
47 1.5 0
48 1.5 0
49 1.5 0
50 1.5 0
0.5 2 0
1.5 2 0
2.5 2 0
3.5 2 0
4.5 2 0
5.5 2 0
6.5 2 0
7.5 2 0
8.5 2 0
9.5 2 0
10.5 2 0
11.5 2 0
12.5 2 0
13.5 2 0
14.5 2 0
15.5 2 0
16.5 2 0
17.5 2 0
18.5 2 0
19.5 2 0
20.5 2 0
21.5 2 0
22.5 2 0
23.5 2 0
24.5 2 0
25.5 2 0
26.5 2 0
27.5 2 0
28.5 2 0
29.5 2 0
30.5 2 0
31.5 2 0
32.5 2 0
33.5 2 0
34.5 2 0
35.5 2 0
36.5 2 0
37.5 2 0
38.5 2 0
39.5 2 0
40.5 2 0
41.5 2 0
42.5 2 0
43.5 2 0
44.5 2 0
45.5 2 0
46.5 2 0
47.5 2 0
48.5 2 0
49.5 2 0
0 2.5 0
1 2.5 0
2 2.5 0
3 2.5 0
4 2.5 0
5 2.5 0
6 2.5 0
7 2.5 0
8 2.5 0
9 2.5 0
10 2.5 0
11 2.5 0
12 2.5 0
13 2.5 0
14 2.5 0
15 2.5 0
16 2.5 0
17 2.5 0
18 2.5 0
19 2.5 0
20 2.5 0
21 2.5 0
22 2.5 0
23 2.5 0
24 2.5 0
25 2.5 0
26 2.5 0
27 2.5 0
28 2.5 0
29 2.5 0
30 2.5 0
31 2.5 0
32 2.5 0
33 2.5 0
34 2.5 0
35 2.5 0
36 2.5 0
37 2.5 0
38 2.5 0
39 2.5 0
40 2.5 0
41 2.5 0
42 2.5 0
43 2.5 0
44 2.5 0
45 2.5 0
46 2.5 0
47 2.5 0
48 2.5 0
49 2.5 0
50 2.5 0
0.5 3 0
1.5 3 0
2.5 3 0
3.5 3 0
4.5 3 0
5.5 3 0
6.5 3 0
7.5 3 0
8.5 3 0
9.5 3 0
10.5 3 0
11.5 3 0
12.5 3 0
13.5 3 0
14.5 3 0
15.5 3 0
16.5 3 0
17.5 3 0
18.5 3 0
19.5 3 0
20.5 3 0
21.5 3 0
22.5 3 0
23.5 3 0
24.5 3 0
25.5 3 0
26.5 3 0
27.5 3 0
28.5 3 0
29.5 3 0
30.5 3 0
31.5 3 0
32.5 3 0
33.5 3 0
34.5 3 0
35.5 3 0
36.5 3 0
37.5 3 0
38.5 3 0
39.5 3 0
40.5 3 0
41.5 3 0
42.5 3 0
43.5 3 0
44.5 3 0
45.5 3 0
46.5 3 0
47.5 3 0
48.5 3 0
49.5 3 0
0 3.5 0
1 3.5 0
2 3.5 0
3 3.5 0
4 3.5 0
5 3.5 0
6 3.5 0
7 3.5 0
8 3.5 0
9 3.5 0
10 3.5 0
11 3.5 0
12 3.5 0
13 3.5 0
14 3.5 0
15 3.5 0
16 3.5 0
17 3.5 0
18 3.5 0
19 3.5 0
20 3.5 0
21 3.5 0
22 3.5 0
23 3.5 0
24 3.5 0
25 3.5 0
26 3.5 0
27 3.5 0
28 3.5 0
29 3.5 0
30 3.5 0
31 3.5 0
32 3.5 0
33 3.5 0
34 3.5 0
35 3.5 0
36 3.5 0
37 3.5 0
38 3.5 0
39 3.5 0
40 3.5 0
41 3.5 0
42 3.5 0
43 3.5 0
44 3.5 0
45 3.5 0
46 3.5 0
47 3.5 0
48 3.5 0
49 3.5 0
50 3.5 0
0.5 4 0
1.5 4 0
2.5 4 0
3.5 4 0
4.5 4 0
5.5 4 0
6.5 4 0
7.5 4 0
8.5 4 0
9.5 4 0
10.5 4 0
11.5 4 0
12.5 4 0
13.5 4 0
14.5 4 0
15.5 4 0
16.5 4 0
17.5 4 0
18.5 4 0
19.5 4 0
20.5 4 0
21.5 4 0
22.5 4 0
23.5 4 0
24.5 4 0
25.5 4 0
26.5 4 0
27.5 4 0
28.5 4 0
29.5 4 0
30.5 4 0
31.5 4 0
32.5 4 0
33.5 4 0
34.5 4 0
35.5 4 0
36.5 4 0
37.5 4 0
38.5 4 0
39.5 4 0
40.5 4 0
41.5 4 0
42.5 4 0
43.5 4 0
44.5 4 0
45.5 4 0
46.5 4 0
47.5 4 0
48.5 4 0
49.5 4 0
0 4.5 0
1 4.5 0
2 4.5 0
3 4.5 0
4 4.5 0
5 4.5 0
6 4.5 0
7 4.5 0
8 4.5 0
9 4.5 0
10 4.5 0
11 4.5 0
12 4.5 0
13 4.5 0
14 4.5 0
15 4.5 0
16 4.5 0
17 4.5 0
18 4.5 0
19 4.5 0
20 4.5 0
21 4.5 0
22 4.5 0
23 4.5 0
24 4.5 0
25 4.5 0
26 4.5 0
27 4.5 0
28 4.5 0
29 4.5 0
30 4.5 0
31 4.5 0
32 4.5 0
33 4.5 0
34 4.5 0
35 4.5 0
36 4.5 0
37 4.5 0
38 4.5 0
39 4.5 0
40 4.5 0
41 4.5 0
42 4.5 0
43 4.5 0
44 4.5 0
45 4.5 0
46 4.5 0
47 4.5 0
48 4.5 0
49 4.5 0
50 4.5 0
0.5 5 0
1.5 5 0
2.5 5 0
3.5 5 0
4.5 5 0
5.5 5 0
6.5 5 0
7.5 5 0
8.5 5 0
9.5 5 0
10.5 5 0
11.5 5 0
12.5 5 0
13.5 5 0
14.5 5 0
15.5 5 0
16.5 5 0
17.5 5 0
18.5 5 0
19.5 5 0
20.5 5 0
21.5 5 0
22.5 5 0
23.5 5 0
24.5 5 0
25.5 5 0
26.5 5 0
27.5 5 0
28.5 5 0
29.5 5 0
30.5 5 0
31.5 5 0
32.5 5 0
33.5 5 0
34.5 5 0
35.5 5 0
36.5 5 0
37.5 5 0
38.5 5 0
39.5 5 0
40.5 5 0
41.5 5 0
42.5 5 0
43.5 5 0
44.5 5 0
45.5 5 0
46.5 5 0
47.5 5 0
48.5 5 0
49.5 5 0
0 5.5 0
1 5.5 0
2 5.5 0
3 5.5 0
4 5.5 0
5 5.5 0
6 5.5 0
7 5.5 0
8 5.5 0
9 5.5 0
10 5.5 0
11 5.5 0
12 5.5 0
13 5.5 0
14 5.5 0
15 5.5 0
16 5.5 0
17 5.5 0
18 5.5 0
19 5.5 0
20 5.5 0
21 5.5 0
22 5.5 0
23 5.5 0
24 5.5 0
25 5.5 0
26 5.5 0
27 5.5 0
28 5.5 0
29 5.5 0
30 5.5 0
31 5.5 0
32 5.5 0
33 5.5 0
34 5.5 0
35 5.5 0
36 5.5 0
37 5.5 0
38 5.5 0
39 5.5 0
40 5.5 0
41 5.5 0
42 5.5 0
43 5.5 0
44 5.5 0
45 5.5 0
46 5.5 0
47 5.5 0
48 5.5 0
49 5.5 0
50 5.5 0
0.5 6 0
1.5 6 0
2.5 6 0
3.5 6 0
4.5 6 0
5.5 6 0
6.5 6 0
7.5 6 0
8.5 6 0
9.5 6 0
10.5 6 0
11.5 6 0
12.5 6 0
13.5 6 0
14.5 6 0
15.5 6 0
16.5 6 0
17.5 6 0
18.5 6 0
19.5 6 0
20.5 6 0
21.5 6 0
22.5 6 0
23.5 6 0
24.5 6 0
25.5 6 0
26.5 6 0
27.5 6 0
28.5 6 0
29.5 6 0
30.5 6 0
31.5 6 0
32.5 6 0
33.5 6 0
34.5 6 0
35.5 6 0
36.5 6 0
37.5 6 0
38.5 6 0
39.5 6 0
40.5 6 0
41.5 6 0
42.5 6 0
43.5 6 0
44.5 6 0
45.5 6 0
46.5 6 0
47.5 6 0
48.5 6 0
49.5 6 0
0 6.5 0
1 6.5 0
2 6.5 0
3 6.5 0
4 6.5 0
5 6.5 0
6 6.5 0
7 6.5 0
8 6.5 0
9 6.5 0
10 6.5 0
11 6.5 0
12 6.5 0
13 6.5 0
14 6.5 0
15 6.5 0
16 6.5 0
17 6.5 0
18 6.5 0
19 6.5 0
20 6.5 0
21 6.5 0
22 6.5 0
23 6.5 0
24 6.5 0
25 6.5 0
26 6.5 0
27 6.5 0
28 6.5 0
29 6.5 0
30 6.5 0
31 6.5 0
32 6.5 0
33 6.5 0
34 6.5 0
35 6.5 0
36 6.5 0
37 6.5 0
38 6.5 0
39 6.5 0
40 6.5 0
41 6.5 0
42 6.5 0
43 6.5 0
44 6.5 0
45 6.5 0
46 6.5 0
47 6.5 0
48 6.5 0
49 6.5 0
50 6.5 0
0.5 7 0
1.5 7 0
2.5 7 0
3.5 7 0
4.5 7 0
5.5 7 0
6.5 7 0
7.5 7 0
8.5 7 0
9.5 7 0
10.5 7 0
11.5 7 0
12.5 7 0
13.5 7 0
14.5 7 0
15.5 7 0
16.5 7 0
17.5 7 0
18.5 7 0
19.5 7 0
20.5 7 0
21.5 7 0
22.5 7 0
23.5 7 0
24.5 7 0
25.5 7 0
26.5 7 0
27.5 7 0
28.5 7 0
29.5 7 0
30.5 7 0
31.5 7 0
32.5 7 0
33.5 7 0
34.5 7 0
35.5 7 0
36.5 7 0
37.5 7 0
38.5 7 0
39.5 7 0
40.5 7 0
41.5 7 0
42.5 7 0
43.5 7 0
44.5 7 0
45.5 7 0
46.5 7 0
47.5 7 0
48.5 7 0
49.5 7 0
0 7.5 0
1 7.5 0
2 7.5 0
3 7.5 0
4 7.5 0
5 7.5 0
6 7.5 0
7 7.5 0
8 7.5 0
9 7.5 0
10 7.5 0
11 7.5 0
12 7.5 0
13 7.5 0
14 7.5 0
15 7.5 0
16 7.5 0
17 7.5 0
18 7.5 0
19 7.5 0
20 7.5 0
21 7.5 0
22 7.5 0
23 7.5 0
24 7.5 0
25 7.5 0
26 7.5 0
27 7.5 0
28 7.5 0
29 7.5 0
30 7.5 0
31 7.5 0
32 7.5 0
33 7.5 0
34 7.5 0
35 7.5 0
36 7.5 0
37 7.5 0
38 7.5 0
39 7.5 0
40 7.5 0
41 7.5 0
42 7.5 0
43 7.5 0
44 7.5 0
45 7.5 0
46 7.5 0
47 7.5 0
48 7.5 0
49 7.5 0
50 7.5 0
0.5 8 0
1.5 8 0
2.5 8 0
3.5 8 0
4.5 8 0
5.5 8 0
6.5 8 0
7.5 8 0
8.5 8 0
9.5 8 0
10.5 8 0
11.5 8 0
12.5 8 0
13.5 8 0
14.5 8 0
15.5 8 0
16.5 8 0
17.5 8 0
18.5 8 0
19.5 8 0
20.5 8 0
21.5 8 0
22.5 8 0
23.5 8 0
24.5 8 0
25.5 8 0
26.5 8 0
27.5 8 0
28.5 8 0
29.5 8 0
30.5 8 0
31.5 8 0
32.5 8 0
33.5 8 0
34.5 8 0
35.5 8 0
36.5 8 0
37.5 8 0
38.5 8 0
39.5 8 0
40.5 8 0
41.5 8 0
42.5 8 0
43.5 8 0
44.5 8 0
45.5 8 0
46.5 8 0
47.5 8 0
48.5 8 0
49.5 8 0
0 8.5 0
1 8.5 0
2 8.5 0
3 8.5 0
4 8.5 0
5 8.5 0
6 8.5 0
7 8.5 0
8 8.5 0
9 8.5 0
10 8.5 0
11 8.5 0
12 8.5 0
13 8.5 0
14 8.5 0
15 8.5 0
16 8.5 0
17 8.5 0
18 8.5 0
19 8.5 0
20 8.5 0
21 8.5 0
22 8.5 0
23 8.5 0
24 8.5 0
25 8.5 0
26 8.5 0
27 8.5 0
28 8.5 0
29 8.5 0
30 8.5 0
31 8.5 0
32 8.5 0
33 8.5 0
34 8.5 0
35 8.5 0
36 8.5 0
37 8.5 0
38 8.5 0
39 8.5 0
40 8.5 0
41 8.5 0
42 8.5 0
43 8.5 0
44 8.5 0
45 8.5 0
46 8.5 0
47 8.5 0
48 8.5 0
49 8.5 0
50 8.5 0
0.5 9 0
1.5 9 0
2.5 9 0
3.5 9 0
4.5 9 0
5.5 9 0
6.5 9 0
7.5 9 0
8.5 9 0
9.5 9 0
10.5 9 0
11.5 9 0
12.5 9 0
13.5 9 0
14.5 9 0
15.5 9 0
16.5 9 0
17.5 9 0
18.5 9 0
19.5 9 0
20.5 9 0
21.5 9 0
22.5 9 0
23.5 9 0
24.5 9 0
25.5 9 0
26.5 9 0
27.5 9 0
28.5 9 0
29.5 9 0
30.5 9 0
31.5 9 0
32.5 9 0
33.5 9 0
34.5 9 0
35.5 9 0
36.5 9 0
37.5 9 0
38.5 9 0
39.5 9 0
40.5 9 0
41.5 9 0
42.5 9 0
43.5 9 0
44.5 9 0
45.5 9 0
46.5 9 0
47.5 9 0
48.5 9 0
49.5 9 0
0 9.5 0
1 9.5 0
2 9.5 0
3 9.5 0
4 9.5 0
5 9.5 0
6 9.5 0
7 9.5 0
8 9.5 0
9 9.5 0
10 9.5 0
11 9.5 0
12 9.5 0
13 9.5 0
14 9.5 0
15 9.5 0
16 9.5 0
17 9.5 0
18 9.5 0
19 9.5 0
20 9.5 0
21 9.5 0
22 9.5 0
23 9.5 0
24 9.5 0
25 9.5 0
26 9.5 0
27 9.5 0
28 9.5 0
29 9.5 0
30 9.5 0
31 9.5 0
32 9.5 0
33 9.5 0
34 9.5 0
35 9.5 0
36 9.5 0
37 9.5 0
38 9.5 0
39 9.5 0
40 9.5 0
41 9.5 0
42 9.5 0
43 9.5 0
44 9.5 0
45 9.5 0
46 9.5 0
47 9.5 0
48 9.5 0
49 9.5 0
50 9.5 0
0.5 10 0
1.5 10 0
2.5 10 0
3.5 10 0
4.5 10 0
5.5 10 0
6.5 10 0
7.5 10 0
8.5 10 0
9.5 10 0
10.5 10 0
11.5 10 0
12.5 10 0
13.5 10 0
14.5 10 0
15.5 10 0
16.5 10 0
17.5 10 0
18.5 10 0
19.5 10 0
20.5 10 0
21.5 10 0
22.5 10 0
23.5 10 0
24.5 10 0
25.5 10 0
26.5 10 0
27.5 10 0
28.5 10 0
29.5 10 0
30.5 10 0
31.5 10 0
32.5 10 0
33.5 10 0
34.5 10 0
35.5 10 0
36.5 10 0
37.5 10 0
38.5 10 0
39.5 10 0
40.5 10 0
41.5 10 0
42.5 10 0
43.5 10 0
44.5 10 0
45.5 10 0
46.5 10 0
47.5 10 0
48.5 10 0
49.5 10 0
0 10.5 0
1 10.5 0
2 10.5 0
3 10.5 0
4 10.5 0
5 10.5 0
6 10.5 0
7 10.5 0
8 10.5 0
9 10.5 0
10 10.5 0
11 10.5 0
12 10.5 0
13 10.5 0
14 10.5 0
15 10.5 0
16 10.5 0
17 10.5 0
18 10.5 0
19 10.5 0
20 10.5 0
21 10.5 0
22 10.5 0
23 10.5 0
24 10.5 0
25 10.5 0
26 10.5 0
27 10.5 0
28 10.5 0
29 10.5 0
30 10.5 0
31 10.5 0
32 10.5 0
33 10.5 0
34 10.5 0
35 10.5 0
36 10.5 0
37 10.5 0
38 10.5 0
39 10.5 0
40 10.5 0
41 10.5 0
42 10.5 0
43 10.5 0
44 10.5 0
45 10.5 0
46 10.5 0
47 10.5 0
48 10.5 0
49 10.5 0
50 10.5 0
[...]
POINT_DATA 5100
VECTORS velocity float
0.167808 0.122401 0.978191
0.0382594 -0.0479789 0.998115
-0.0474532 -0.175749 0.983291
-0.0424927 -0.30407 0.951701
0.0244474 -0.472722 0.880873
0.103434 -0.661697 0.742602
0.152544 -0.818444 0.553967
0.162909 -0.918484 0.360344
0.145599 -0.970953 0.189871
0.112288 -0.9925 0.0483146
0.0697377 -0.995234 -0.0681571
0.0207343 -0.986024 -0.165311
-0.0344599 -0.968059 -0.248345
-0.0971845 -0.942021 -0.321172
-0.169602 -0.906807 -0.385924
-0.253579 -0.860238 -0.442367
-0.34911 -0.800202 -0.487646
-0.452863 -0.726322 -0.51708
-0.558141 -0.641402 -0.526385
-0.65696 -0.551336 -0.51423
-0.743032 -0.463058 -0.483198
-0.813444 -0.382098 -0.438533
-0.868332 -0.311411 -0.386036
-0.909589 -0.251653 -0.330635
-0.939706 -0.202009 -0.275944
-0.961114 -0.160901 -0.224434
-0.97592 -0.126398 -0.177773
-0.985844 -0.0964331 -0.137155
-0.992234 -0.0689607 -0.10352
-0.996089 -0.0421117 -0.0776702
-0.998078 -0.0143723 -0.0602832
-0.99854 0.0152558 -0.0518196
-0.997513 0.0471601 -0.052385
-0.994799 0.0811228 -0.0615961
-0.990091 0.116426 -0.078519
-0.983128 0.152031 -0.101714
-0.973842 0.186791 -0.129385
-0.962438 0.219648 -0.159584
-0.94939 0.24979 -0.190431
-0.935351 0.276754 -0.220285
-0.921021 0.300465 -0.247874
-0.90697 0.321266 -0.272385
-0.893461 0.339954 -0.293529
-0.880243 0.357868 -0.311614
-0.866304 0.377007 -0.327694
-0.849489 0.400076 -0.343959
-0.825929 0.430068 -0.364532
-0.789532 0.468616 -0.396281
-0.731512 0.51337 -0.44871
-0.638039 0.555832 -0.532877
0.122401 0.167808 0.978191
-0.039 -0.0760118 0.996344
-0.0734065 -0.209956 0.974951
-0.0300546 -0.337347 0.9409
0.071922 -0.48877 0.869443
0.187781 -0.654286 0.732563
0.269354 -0.796169 0.541814
0.300172 -0.892332 0.337106
0.28901 -0.945823 0.147961
0.2492 -0.968342 -0.0145903
0.190584 -0.970281 -0.149104
0.119529 -0.958939 -0.257194
0.0403016 -0.939104 -0.341261
-0.0441782 -0.91366 -0.404072
-0.132137 -0.883881 -0.448659
-0.222859 -0.849618 -0.477999
-0.316326 -0.809584 -0.494481
-0.412428 -0.761902 -0.499408
-0.50995 -0.704979 -0.492905
-0.605887 -0.638573 -0.474473
-0.695755 -0.564574 -0.444051
-0.774977 -0.486868 -0.402952
-0.840511 -0.410162 -0.35399
-0.891595 -0.338503 -0.300788
-0.929404 -0.274348 -0.246863
-0.956155 -0.218441 -0.195069
-0.974315 -0.170167 -0.147488
-0.986135 -0.128031 -0.105576
-0.993444 -0.090082 -0.0703826
-0.997612 -0.0542774 -0.0427205
-0.999553 -0.0187899 -0.02324
-0.999766 0.0177395 -0.0124
-0.998375 0.0560339 -0.0103629
-0.995226 0.096128 -0.0168686
-0.99002 0.137439 -0.0311528
-0.982487 0.178941 -0.0519578
-0.972542 0.219395 -0.0776438
-0.960383 0.257586 -0.10637
-0.946494 0.292529 -0.136294
-0.931567 0.323591 -0.165745
-0.916365 0.350556 -0.193355
-0.90155 0.373646 -0.218167
-0.887501 0.393548 -0.239711
-0.874116 0.411481 -0.258079
-0.860582 0.429306 -0.274035
-0.845074 0.44961 -0.28931
-0.824303 0.475484 -0.307311
-0.793032 0.509351 -0.334157
-0.743958 0.550591 -0.378651
-0.666747 0.594103 -0.449989
-0.555832 0.638039 -0.532877
-0.0760118 -0.039 0.996344
-0.121496 -0.17903 0.976313
-0.0631841 -0.29359 0.953841
0.0553996 -0.427354 0.902385
0.199064 -0.579311 0.790425
0.31656 -0.721652 0.615637
0.379495 -0.829036 0.41071
0.389973 -0.896863 0.208706
0.360792 -0.93226 0.0268365
0.303517 -0.944111 -0.128578
0.226693 -0.939803 -0.255696
0.136928 -0.925002 -0.354433
0.0396826 -0.903889 -0.425921
-0.0606686 -0.879231 -0.472516
-0.161111 -0.85233 -0.497571
-0.260119 -0.823065 -0.504878
-0.357372 -0.790133 -0.497972
-0.453043 -0.751509 -0.47957
-0.546838 -0.705138 -0.451385
-0.637203 -0.649795 -0.414414
-0.721202 -0.585888 -0.369598
-0.795322 -0.515773 -0.318498
-0.856809 -0.443206 -0.263527
-0.904656 -0.372154 -0.207603
-0.939684 -0.305638 -0.153553
-0.963925 -0.245155 -0.103676
-0.979834 -0.190707 -0.0596243
-0.989725 -0.141198 -0.0225241
-0.995461 -0.09492 0.0068511
-0.998356 -0.0500407 0.0279489
-0.999171 -0.00499528 0.0404084
-0.998175 0.0412233 0.0441223
-0.995262 0.088918 0.0393441
-0.990114 0.137688 0.0267739
-0.982414 0.186561 0.0075689
-0.972038 0.234225 -0.0167419
-0.959177 0.279297 -0.0444142
-0.944356 0.320568 -0.0736679
-0.928353 0.357188 -0.102848
-0.912048 0.388747 -0.130556
-0.896248 0.415305 -0.155761
-0.881489 0.437413 -0.177896
-0.867831 0.456167 -0.19693
-0.854642 0.473311 -0.213458
-0.840345 0.491347 -0.228906
-0.822067 0.513475 -0.246066
-0.795209 0.542824 -0.270157
-0.753305 0.580365 -0.309367
-0.688374 0.62295 -0.371584
-0.594103 0.666747 -0.449989
-0.0479789 0.0382594 0.998115
-0.17903 -0.121496 0.976313
-0.129162 -0.211478 0.968811
-0.00853247 -0.323806 0.946085
0.156508 -0.462736 0.872572
0.314424 -0.609644 0.727648
0.41961 -0.73497 0.53268
0.462615 -0.824791 0.325126
0.454911 -0.881082 0.129427
0.410129 -0.91098 -0.0436933
0.33882 -0.921477 -0.189947
0.249147 -0.918359 -0.307479
0.148025 -0.906292 -0.395882
0.0413985 -0.888871 -0.456284
-0.0661183 -0.868459 -0.491332
-0.171623 -0.846043 -0.504734
-0.273947 -0.821241 -0.500517
-0.373191 -0.792534 -0.482306
-0.469875 -0.757711 -0.45287
-0.563937 -0.714516 -0.414055
-0.653938 -0.661489 -0.367149
-0.736965 -0.598819 -0.313524
-0.8095 -0.528749 -0.255214
-0.868833 -0.455089 -0.194996
-0.914118 -0.381976 -0.135953
-0.946441 -0.312591 -0.0808458
-0.968117 -0.248479 -0.0317452
-0.981814 -0.189582 0.00999372
-0.989929 -0.134699 0.0435491
-0.994273 -0.0820887 0.0684329
-0.995981 -0.0300242 0.0843844
-0.995556 0.0227857 0.0913782
-0.992992 0.0769371 0.0897046
-0.987978 0.132251 0.0800537
-0.98014 0.187852 0.0635356
-0.969288 0.242381 0.0416117
-0.955587 0.294276 0.0159543
-0.939599 0.342078 -0.0117179
-0.922202 0.384656 -0.0397862
-0.904433 0.421345 -0.0668556
-0.887284 0.451983 -0.0918669
-0.871493 0.476926 -0.1142
-0.857328 0.497091 -0.133754
-0.844365 0.514043 -0.151018
-0.831269 0.530131 -0.167191
-0.815515 0.548529 -0.184531
-0.793044 0.572846 -0.207192
-0.758045 0.605556 -0.242218
-0.703471 0.64548 -0.297464
-0.62295 0.688374 -0.371584
-0.51337 0.731512 -0.44871
-0.209956 -0.0734065 0.974951
-0.211478 -0.129162 0.968811
-0.0991991 -0.208312 0.973019
0.0762069 -0.323142 0.943277
0.27298 -0.465033 0.842155
0.429477 -0.605299 0.670196
0.516156 -0.719285 0.464986
0.539217 -0.800988 0.260122
0.514463 -0.854468 0.0721992
0.455071 -0.885698 -0.0919181
0.370897 -0.900028 -0.228877
0.270098 -0.901994 -0.336828
0.159923 -0.895451 -0.415442
0.0464688 -0.883469 -0.46618
-0.0658962 -0.868058 -0.492071
-0.17484 -0.849945 -0.497016
-0.279837 -0.828551 -0.484968
-0.38148 -0.802199 -0.459293
-0.480496 -0.76853 -0.422476
-0.576699 -0.725169 -0.376228
-0.668256 -0.670651 -0.321964
-0.751762 -0.605374 -0.261488
-0.823389 -0.532022 -0.19744
-0.880523 -0.454915 -0.13316
-0.922792 -0.37851 -0.0720106
-0.951894 -0.305973 -0.0167077
-0.970636 -0.238553 0.0309475
-0.981939 -0.175797 0.0699438
-0.988201 -0.116197 0.0997878
-0.991047 -0.0579153 0.120295
-0.991313 0.000625307 0.131523
-0.989168 0.0603503 0.133811
-0.98434 0.121357 0.127859
-0.976405 0.182932 0.114753
-0.965089 0.243728 0.0959116
-0.950494 0.302059 0.0729502
-0.93319 0.356227 0.0475317
-0.914149 0.404821 0.0212304
-0.894577 0.446891 -0.00457954
-0.875688 0.482016 -0.0288364
-0.858473 0.510327 -0.0509003
-0.843459 0.532529 -0.0706412
-0.830478 0.549978 -0.0884951
-0.818447 0.564808 -0.105526
-0.805148 0.58005 -0.12361
-0.786956 0.599491 -0.145983
-0.758613 0.626686 -0.178243
-0.713546 0.662513 -0.227879
-0.64548 0.703471 -0.297464
-0.550591 0.743958 -0.378651
-0.175749 -0.0474532 0.983291
-0.29359 -0.0631841 0.953841
-0.208312 -0.0991991 0.973019
-0.0372885 -0.175422 0.983787
0.186846 -0.294262 0.937282
0.398898 -0.437406 0.805951
0.541797 -0.572527 0.615361
0.607304 -0.681653 0.408082
0.611623 -0.762921 0.209449
0.571289 -0.8202 0.0300088
0.498355 -0.857856 -0.1254
0.40222 -0.879708 -0.25364
0.291281 -0.889207 -0.352799
0.173112 -0.889559 -0.42275
0.0537684 -0.883499 -0.465337
-0.0628684 -0.872876 -0.483874
-0.175174 -0.858336 -0.482259
-0.283267 -0.839227 -0.464174
-0.388117 -0.813773 -0.432595
-0.490456 -0.779487 -0.389682
-0.589718 -0.73392 -0.337037
-0.683387 -0.675745 -0.276314
-0.767379 -0.605864 -0.209899
-0.83759 -0.527741 -0.14118
-0.891765 -0.446395 -0.0740675
-0.930331 -0.366522 -0.0120925
-0.95579 -0.291001 0.0422426
-0.971451 -0.220503 0.0875305
-0.980363 -0.154018 0.123157
-0.984763 -0.0897274 0.148969
-0.98594 -0.0258048 0.165096
-0.984335 0.0390168 0.171935
-0.979782 0.10515 0.170207
-0.971835 0.172099 0.160993
-0.96013 0.238593 0.145683
-0.944683 0.302878 0.125854
-0.926035 0.363076 0.103123
-0.905224 0.417521 0.0790243
-0.883611 0.464991 0.0549095
-0.862648 0.504802 0.0318372
-0.843613 0.53685 0.0104541
-0.827345 0.56162 -0.00910094
-0.813982 0.58025 -0.027248
-0.80273 0.594643 -0.0449876
-0.791657 0.607608 -0.0639648
-0.777494 0.622877 -0.086758
-0.755438 0.644577 -0.117623
-0.719267 0.675347 -0.162977
-0.662513 0.713546 -0.227879
-0.580365 0.753305 -0.309367
-0.468616 0.789532 -0.396281
-0.337347 -0.0300546 0.9409
-0.323806 -0.00853247 0.946085
-0.175422 -0.0372885 0.983787
0.0546054 -0.113087 0.992083
0.314164 -0.237128 0.919277
0.523149 -0.381909 0.76188
0.645132 -0.516078 0.563443
0.690326 -0.627056 0.360903
0.678556 -0.714399 0.170868
0.624813 -0.780775 9.46914e-05
0.539827 -0.828798 -0.147244
0.432822 -0.860804 -0.267733
0.312633 -0.879294 -0.359308
0.187164 -0.887049 -0.422035
0.0623132 -0.886736 -0.458056
-0.0586097 -0.880296 -0.47079
-0.174665 -0.868473 -0.463948
-0.2865 -0.850638 -0.440832
-0.395293 -0.82493 -0.404023
-0.501594 -0.788719 -0.355424
-0.604235 -0.739515 -0.296676
-0.699844 -0.676298 -0.22987
-0.783633 -0.60075 -0.158172
-0.851465 -0.517348 -0.0857881
-0.901814 -0.431787 -0.017081
-0.936165 -0.348736 0.0444877
-0.957851 -0.270456 0.0968273
-0.970528 -0.196852 0.139012
-0.977163 -0.126367 0.170833
-0.979645 -0.0570279 0.192467
-0.978811 0.0127543 0.20437
-0.974688 0.08373 0.207299
-0.966865 0.155658 0.202341
-0.954912 0.227396 0.190878
-0.938746 0.297181 0.174466
-0.918856 0.363007 0.154689
-0.896304 0.423008 0.133053
-0.872577 0.475722 0.110898
-0.849347 0.520227 0.0892881
-0.828195 0.556191 0.0688836
-0.810302 0.58389 0.0498316
-0.796159 0.604256 0.0317122
-0.785302 0.618965 0.0135414
-0.776099 0.630581 -0.00621139
-0.765585 0.642648 -0.0297135
-0.749334 0.659451 -0.0601976
-0.721456 0.684804 -0.102688
-0.675347 0.719267 -0.162977
-0.605556 0.758045 -0.242218
-0.509351 0.793032 -0.334157
-0.30407 -0.0424927 0.951701
-0.427354 0.0553996 0.902385
-0.323142 0.0762069 0.943277
-0.113087 0.0546054 0.992083
0.169119 -0.0243712 0.985294
0.442352 -0.155945 0.883179
0.63366 -0.304703 0.711077
0.733617 -0.442686 0.515592
0.762302 -0.560972 0.32281
0.738288 -0.659204 0.14276
0.673977 -0.738494 -0.0195596
0.578902 -0.799602 -0.159713
0.4624 -0.843378 -0.273679
0.333914 -0.871508 -0.359131
0.201706 -0.886608 -0.416222
0.0714923 -0.891563 -0.447218
-0.0539523 -0.888629 -0.455442
-0.174262 -0.878772 -0.444289
-0.290459 -0.861412 -0.416657
-0.403773 -0.834566 -0.374789
-0.514387 -0.795426 -0.320472
-0.62034 -0.74152 -0.255591
-0.717285 -0.672343 -0.182912
-0.799863 -0.590647 -0.106559
-0.864278 -0.502027 -0.0315196
-0.910117 -0.41264 0.0376304
-0.940047 -0.326731 0.0977707
-0.958086 -0.24567 0.147369
-0.967983 -0.168562 0.186
-0.972387 -0.0934855 0.213832
-0.972688 -0.0185942 0.231371
-0.96923 0.0572002 0.239419
-0.961716 0.133938 0.239088
-0.949691 0.210644 0.231768
-0.932993 0.285585 0.21901
-0.912043 0.356678 0.202384
-0.8879 0.421907 0.18338
-0.862137 0.479624 0.163339
-0.836615 0.528702 0.143351
-0.813194 0.568605 0.12411
-0.79341 0.599424 0.105788
-0.778135 0.621906 0.0879705
-0.767272 0.637526 0.06967
-0.759512 0.648615 0.0493948
-0.752183 0.658473 0.0251985
-0.741168 0.671297 -0.00547445
-0.720909 0.691477 -0.046364
-0.684804 0.721456 -0.102688
-0.626686 0.758613 -0.178243
-0.542824 0.795209 -0.270157
-0.430068 0.825929 -0.364532
-0.48877 0.071922 0.869443
-0.462736 0.156508 0.872572
-0.294262 0.186846 0.937282
-0.0243712 0.169119 0.985294
0.290814 0.0805924 0.953379
0.554912 -0.0610035 0.82967
0.722402 -0.215644 0.656988
0.804176 -0.360393 0.472671
0.821704 -0.489034 0.292658
0.789844 -0.600816 0.123156
0.718207 -0.69513 -0.0312075
0.61534 -0.770755 -0.16521
0.490906 -0.826999 -0.274016
0.3551 -0.864847 -0.354886
0.216604 -0.886972 -0.407876
0.081033 -0.896699 -0.43516
-0.0492557 -0.896739 -0.439809
-0.174322 -0.888326 -0.424839
-0.295423 -0.870891 -0.392778
-0.413693 -0.842251 -0.345646
-0.528766 -0.799387 -0.285285
-0.637697 -0.739945 -0.214066
-0.73512 -0.664219 -0.135691
-0.815372 -0.576285 -0.0553451
-0.875467 -0.482806 0.0213636
-0.916406 -0.390006 0.0899694
-0.941983 -0.301305 0.147927
-0.956623 -0.217048 0.194324
-0.963873 -0.135709 0.2292
-0.965862 -0.0553233 0.253082
-0.963408 0.0255054 0.266822
-0.956439 0.107113 0.271572
-0.944542 0.188714 0.268751
-0.92751 0.268635 0.259923
-0.905708 0.344751 0.246659
-0.880181 0.414942 0.230445
-0.852558 0.47742 0.21264
-0.824842 0.530898 0.194378
-0.799142 0.574674 0.176414
-0.77733 0.608676 0.158971
-0.760667 0.633497 0.141662
-0.749444 0.650447 0.1235
-0.7427 0.661656 0.102994
-0.738057 0.670181 0.0782891
-0.731672 0.680019 0.0472249
-0.718293 0.695705 0.00702845
-0.691477 0.720909 -0.046364
-0.644577 0.755438 -0.117623
-0.572846 0.793044 -0.207192
-0.475484 0.824303 -0.307311
-0.472722 0.0244474 0.880873
-0.579311 0.199064 0.790425
-0.465033 0.27298 0.842155
-0.237128 0.314164 0.919277
0.0805924 0.290814 0.953379
0.401867 0.186594 0.896485
0.642414 0.0351593 0.765551
0.787622 -0.12485 0.603377
0.857045 -0.276603 0.4347
0.868752 -0.416052 0.268644
0.833281 -0.541873 0.109617
0.75758 -0.651666 -0.0374558
0.649316 -0.742098 -0.166374
0.518556 -0.810844 -0.271352
0.376339 -0.858213 -0.349055
0.231895 -0.887046 -0.399217
0.0908865 -0.901217 -0.423731
-0.0445834 -0.903949 -0.42531
-0.174866 -0.896719 -0.406593
-0.301342 -0.878879 -0.369818
-0.42491 -0.84795 -0.316911
-0.544452 -0.800677 -0.249976
-0.655839 -0.735011 -0.172143
-0.752731 -0.65238 -0.0882961
-0.829579 -0.55837 -0.00467825
-0.884695 -0.460455 0.0727787
-0.920638 -0.364432 0.140054
-0.942092 -0.272599 0.195326
-0.953535 -0.184367 0.238284
-0.958038 -0.0979166 0.269398
-0.957089 -0.0116282 0.289562
-0.950981 0.0751255 0.299985
-0.939441 0.161762 0.302131
-0.922269 0.246686 0.2976
-0.899806 0.327747 0.287978
-0.873095 0.402753 0.274763
-0.843806 0.469823 0.259341
-0.814052 0.527554 0.242913
-0.786148 0.57511 0.226318
-0.762272 0.61229 0.20986
-0.74406 0.639566 0.193213
-0.732198 0.658117 0.17541
-0.726091 0.669913 0.154949
-0.723656 0.677808 0.129994
-0.721303 0.685569 0.0985762
-0.714048 0.697644 0.0585543
-0.695705 0.718293 0.00702845
-0.659451 0.749334 -0.0601976
-0.599491 0.786956 -0.145983
-0.513475 0.822067 -0.246066
-0.400076 0.849489 -0.343959
-0.654286 0.187781 0.732563
-0.609644 0.314424 0.727648
-0.437406 0.398898 0.805951
-0.155945 0.442352 0.883179
0.186594 0.401867 0.896485
0.49127 0.280914 0.824464
0.704508 0.123212 0.698919
0.832389 -0.0395823 0.552777
0.89478 -0.19654 0.400925
0.904958 -0.345282 0.248658
0.869428 -0.483916 0.0995989
0.792628 -0.608332 -0.0409038
0.681253 -0.713046 -0.16571
0.545692 -0.79397 -0.268015
0.397872 -0.850632 -0.34369
0.247736 -0.886012 -0.39193
0.101187 -0.904544 -0.414199
-0.0397785 -0.909947 -0.412813
-0.175706 -0.903866 -0.390069
-0.308013 -0.885452 -0.347998
-0.437201 -0.851808 -0.288581
-0.561134 -0.799471 -0.214416
-0.674305 -0.726971 -0.129714
-0.76958 -0.637249 -0.0407323
-0.84208 -0.537441 0.0453804
-0.89184 -0.435376 0.12276
-0.922907 -0.335941 0.188114
-0.940478 -0.240235 0.240393
-0.948717 -0.147044 0.279845
-0.950018 -0.0547033 0.307364
-0.945231 0.0376653 0.324222
-0.934339 0.129684 0.331952
-0.917228 0.219839 0.33221
-0.894265 0.305957 0.326618
-0.866526 0.385794 0.316694
-0.835728 0.457407 0.30387
-0.804079 0.519318 0.289424
-0.774064 0.570597 0.274306
-0.748133 0.610942 0.258934
-0.728272 0.640731 0.243072
-0.715559 0.661051 0.225805
-0.709765 0.673757 0.205633
-0.70911 0.68155 0.180698
-0.710236 0.687993 0.149096
-0.708383 0.697353 0.109046
-0.697644 0.714048 0.0585543
-0.671297 0.741168 -0.00547445
-0.622877 0.777494 -0.086758
-0.548529 0.815515 -0.184531
-0.44961 0.845074 -0.28931
-0.661697 0.103434 0.742602
-0.721652 0.31656 0.615637
-0.605299 0.429477 0.670196
-0.381909 0.523149 0.76188
-0.0610035 0.554912 0.82967
0.280914 0.49127 0.824464
0.557604 0.358149 0.74887
0.746177 0.199041 0.635297
0.861675 0.0366384 0.506136
0.920792 -0.122842 0.370204
0.932371 -0.278288 0.23074
0.899459 -0.427445 0.090906
0.824071 -0.564798 -0.0437107
0.711674 -0.682807 -0.165214
0.572727 -0.775472 -0.265759
0.420043 -0.841308 -0.340242
0.264444 -0.883289 -0.38713
0.112259 -0.906345 -0.407353
-0.0345086 -0.914633 -0.402809
-0.176546 -0.909854 -0.375496
-0.315215 -0.890785 -0.327327
-0.450389 -0.853986 -0.260496
-0.578568 -0.795885 -0.1784
-0.692708 -0.715991 -0.086677
-0.785263 -0.619123 0.00695131
-0.852675 -0.513778 0.0947492
-0.89696 -0.407557 0.171346
-0.923362 -0.304104 0.234359
-0.93713 -0.203516 0.283494
-0.941802 -0.104427 0.319537
-0.939022 -0.00581866 0.343809
-0.929196 0.0921147 0.357925
-0.912393 0.187928 0.363623
-0.889079 0.279413 0.362582
-0.860417 0.364272 0.356355
-0.828203 0.44053 0.346428
-0.794741 0.506665 0.334182
-0.762671 0.561684 0.320693
-0.734683 0.605215 0.306522
-0.713091 0.637569 0.291558
-0.699348 0.659774 0.274975
-0.69359 0.673614 0.255298
-0.69434 0.681687 0.23064
-0.698453 0.687408 0.199085
-0.701346 0.694858 0.159016
-0.697353 0.708383 0.109046
-0.680019 0.731672 0.0472249
-0.642648 0.765585 -0.0297135
-0.58005 0.805148 -0.12361
-0.491347 0.840345 -0.228906
-0.377007 0.866304 -0.327694
-0.796169 0.269354 0.541814
-0.73497 0.41961 0.53268
-0.572527 0.541797 0.615361
-0.304703 0.63366 0.711077
0.0351593 0.642414 0.765551
0.358149 0.557604 0.74887
0.60503 0.418866 0.677119
0.773442 0.262457 0.576978
0.880192 0.103191 0.463264
0.938251 -0.0560711 0.34138
0.952959 -0.215267 0.213377
0.924544 -0.37216 0.0819474
0.852648 -0.520332 -0.0473909
0.741139 -0.650442 -0.166247
0.600172 -0.754432 -0.265755
0.443356 -0.829491 -0.339677
0.282534 -0.878357 -0.385568
0.124614 -0.90635 -0.403734
-0.0283284 -0.917967 -0.395643
-0.177082 -0.914797 -0.363027
-0.322819 -0.895024 -0.307767
-0.464428 -0.854549 -0.232492
-0.596609 -0.789908 -0.141785
-0.710753 -0.702123 -0.0430575
-0.799533 -0.598138 0.0545714
-0.861367 -0.487365 0.143256
-0.900243 -0.376592 0.218498
-0.922113 -0.268176 0.278906
-0.931825 -0.161645 0.324919
-0.932096 -0.0560742 0.357844
-0.92397 0.0484567 0.379384
-0.907834 0.15054 0.391376
-0.884345 0.247895 0.395579
-0.854831 0.338153 0.393595
-0.821227 0.41932 0.386985
-0.785956 0.489858 0.377242
-0.751813 0.54874 0.365599
-0.721714 0.595547 0.352779
-0.698281 0.63055 0.338836
-0.683328 0.654745 0.323067
-0.677351 0.669883 0.304059
-0.679168 0.678515 0.279908
-0.685833 0.683966 0.248645
-0.692893 0.690178 0.208693
-0.694858 0.701346 0.159016
-0.685569 0.721303 0.0985762
-0.658473 0.752183 0.0251985
-0.607608 0.791657 -0.0639648
-0.530131 0.831269 -0.167191
-0.429306 0.860582 -0.274035
-0.818444 0.152544 0.553967
-0.829036 0.379495 0.41071
-0.719285 0.516156 0.464986
-0.516078 0.645132 0.563443
-0.215644 0.722402 0.656988
0.123212 0.704508 0.698919
0.418866 0.60503 0.677119
0.638835 0.466156 0.612036
0.7912 0.315158 0.524098
0.891498 0.161083 0.423418
0.94958 0.00450081 0.313491
0.968283 -0.155509 0.195564
0.945645 -0.317188 0.0717399
0.879013 -0.473859 -0.0528605
0.770238 -0.614779 -0.169646
0.628666 -0.729751 -0.268779
0.468507 -0.814281 -0.342705
0.302717 -0.870583 -0.387877
0.138901 -0.904212 -0.403866
-0.0207577 -0.919862 -0.391693
-0.177101 -0.918764 -0.352856
-0.330866 -0.898232 -0.289322
-0.479427 -0.853429 -0.204469
-0.615201 -0.781406 -0.104556
-0.728246 -0.685315 0.000932013
-0.812337 -0.574237 0.101787
-0.868355 -0.457847 0.190618
-0.90193 -0.341733 0.264084
-0.91913 -0.227233 0.321815
-0.924027 -0.113964 0.364947
-0.918577 -0.00205334 0.395237
-0.903666 0.107066 0.414638
-0.880265 0.210972 0.425
-0.849974 0.307187 0.427996
-0.814952 0.393698 0.42527
-0.777794 0.468967 0.418458