# vtk DataFile Version 2.0
tmp/0.000.00-10.000.000.001.0023.vtk
ASCII
DATASET UNSTRUCTURED_GRID
POINTS 5000 float
0.75 0.25 0
1.75 0.25 0
2.75 0.25 0
3.75 0.25 0
4.75 0.25 0
5.75 0.25 0
6.75 0.25 0
7.75 0.25 0
8.75 0.25 0
9.75 0.25 0
10.75 0.25 0
11.75 0.25 0
12.75 0.25 0
13.75 0.25 0
14.75 0.25 0
15.75 0.25 0
16.75 0.25 0
17.75 0.25 0
18.75 0.25 0
19.75 0.25 0
20.75 0.25 0
21.75 0.25 0
22.75 0.25 0
23.75 0.25 0
24.75 0.25 0
25.75 0.25 0
26.75 0.25 0
27.75 0.25 0
28.75 0.25 0
29.75 0.25 0
30.75 0.25 0
31.75 0.25 0
32.75 0.25 0
33.75 0.25 0
34.75 0.25 0
35.75 0.25 0
36.75 0.25 0
37.75 0.25 0
38.75 0.25 0
39.75 0.25 0
40.75 0.25 0
41.75 0.25 0
42.75 0.25 0
43.75 0.25 0
44.75 0.25 0
45.75 0.25 0
46.75 0.25 0
47.75 0.25 0
48.75 0.25 0
49.75 0.25 0
0.25 0.75 0
1.25 0.75 0
2.25 0.75 0
3.25 0.75 0
4.25 0.75 0
5.25 0.75 0
6.25 0.75 0
7.25 0.75 0
8.25 0.75 0
9.25 0.75 0
10.25 0.75 0
11.25 0.75 0
12.25 0.75 0
13.25 0.75 0
14.25 0.75 0
15.25 0.75 0
16.25 0.75 0
17.25 0.75 0
18.25 0.75 0
19.25 0.75 0
20.25 0.75 0
21.25 0.75 0
22.25 0.75 0
23.25 0.75 0
24.25 0.75 0
25.25 0.75 0
26.25 0.75 0
27.25 0.75 0
28.25 0.75 0
29.25 0.75 0
30.25 0.75 0
31.25 0.75 0
32.25 0.75 0
33.25 0.75 0
34.25 0.75 0
35.25 0.75 0
36.25 0.75 0
37.25 0.75 0
38.25 0.75 0
39.25 0.75 0
40.25 0.75 0
41.25 0.75 0
42.25 0.75 0
43.25 0.75 0
44.25 0.75 0
45.25 0.75 0
46.25 0.75 0
47.25 0.75 0
48.25 0.75 0
49.25 0.75 0
0.75 1.25 0
1.75 1.25 0
2.75 1.25 0
3.75 1.25 0
4.75 1.25 0
5.75 1.25 0
6.75 1.25 0
7.75 1.25 0
8.75 1.25 0
9.75 1.25 0
10.75 1.25 0
11.75 1.25 0
12.75 1.25 0
13.75 1.25 0
14.75 1.25 0
15.75 1.25 0
16.75 1.25 0
17.75 1.25 0
18.75 1.25 0
19.75 1.25 0
20.75 1.25 0
21.75 1.25 0
22.75 1.25 0
23.75 1.25 0
24.75 1.25 0
25.75 1.25 0
26.75 1.25 0
27.75 1.25 0
28.75 1.25 0
29.75 1.25 0
30.75 1.25 0
31.75 1.25 0
32.75 1.25 0
33.75 1.25 0
34.75 1.25 0
35.75 1.25 0
36.75 1.25 0
37.75 1.25 0
38.75 1.25 0
39.75 1.25 0
40.75 1.25 0
41.75 1.25 0
42.75 1.25 0
43.75 1.25 0
44.75 1.25 0
45.75 1.25 0
46.75 1.25 0
47.75 1.25 0
48.75 1.25 0
49.75 1.25 0
0.25 1.75 0
1.25 1.75 0
2.25 1.75 0
3.25 1.75 0
4.25 1.75 0
5.25 1.75 0
6.25 1.75 0
7.25 1.75 0
8.25 1.75 0
9.25 1.75 0
10.25 1.75 0
11.25 1.75 0
12.25 1.75 0
13.25 1.75 0
14.25 1.75 0
15.25 1.75 0
16.25 1.75 0
17.25 1.75 0
18.25 1.75 0
19.25 1.75 0
20.25 1.75 0
21.25 1.75 0
22.25 1.75 0
23.25 1.75 0
24.25 1.75 0
25.25 1.75 0
26.25 1.75 0
27.25 1.75 0
28.25 1.75 0
29.25 1.75 0
30.25 1.75 0
31.25 1.75 0
32.25 1.75 0
33.25 1.75 0
34.25 1.75 0
35.25 1.75 0
36.25 1.75 0
37.25 1.75 0
38.25 1.75 0
39.25 1.75 0
40.25 1.75 0
41.25 1.75 0
42.25 1.75 0
43.25 1.75 0
44.25 1.75 0
45.25 1.75 0
46.25 1.75 0
47.25 1.75 0
48.25 1.75 0
49.25 1.75 0
0.75 2.25 0
1.75 2.25 0
2.75 2.25 0
3.75 2.25 0
4.75 2.25 0
5.75 2.25 0
6.75 2.25 0
7.75 2.25 0
8.75 2.25 0
9.75 2.25 0
10.75 2.25 0
11.75 2.25 0
12.75 2.25 0
13.75 2.25 0
14.75 2.25 0
15.75 2.25 0
16.75 2.25 0
17.75 2.25 0
18.75 2.25 0
19.75 2.25 0
20.75 2.25 0
21.75 2.25 0
22.75 2.25 0
23.75 2.25 0
24.75 2.25 0
25.75 2.25 0
26.75 2.25 0
27.75 2.25 0
28.75 2.25 0
29.75 2.25 0
30.75 2.25 0
31.75 2.25 0
32.75 2.25 0
33.75 2.25 0
34.75 2.25 0
35.75 2.25 0
36.75 2.25 0
37.75 2.25 0
38.75 2.25 0
39.75 2.25 0
40.75 2.25 0
41.75 2.25 0
42.75 2.25 0
43.75 2.25 0
44.75 2.25 0
45.75 2.25 0
46.75 2.25 0
47.75 2.25 0
48.75 2.25 0
49.75 2.25 0
0.25 2.75 0
1.25 2.75 0
2.25 2.75 0
3.25 2.75 0
4.25 2.75 0
5.25 2.75 0
6.25 2.75 0
7.25 2.75 0
8.25 2.75 0
9.25 2.75 0
10.25 2.75 0
11.25 2.75 0
12.25 2.75 0
13.25 2.75 0
14.25 2.75 0
15.25 2.75 0
16.25 2.75 0
17.25 2.75 0
18.25 2.75 0
19.25 2.75 0
20.25 2.75 0
21.25 2.75 0
22.25 2.75 0
23.25 2.75 0
24.25 2.75 0
25.25 2.75 0
26.25 2.75 0
27.25 2.75 0
28.25 2.75 0
29.25 2.75 0
30.25 2.75 0
31.25 2.75 0
32.25 2.75 0
33.25 2.75 0
34.25 2.75 0
35.25 2.75 0
36.25 2.75 0
37.25 2.75 0
38.25 2.75 0
39.25 2.75 0
40.25 2.75 0
41.25 2.75 0
42.25 2.75 0
43.25 2.75 0
44.25 2.75 0
45.25 2.75 0
46.25 2.75 0
47.25 2.75 0
48.25 2.75 0
49.25 2.75 0
0.75 3.25 0
1.75 3.25 0
2.75 3.25 0
3.75 3.25 0
4.75 3.25 0
5.75 3.25 0
6.75 3.25 0
7.75 3.25 0
8.75 3.25 0
9.75 3.25 0
10.75 3.25 0
11.75 3.25 0
12.75 3.25 0
13.75 3.25 0
14.75 3.25 0
15.75 3.25 0
16.75 3.25 0
17.75 3.25 0
18.75 3.25 0
19.75 3.25 0
20.75 3.25 0
21.75 3.25 0
22.75 3.25 0
23.75 3.25 0
24.75 3.25 0
25.75 3.25 0
26.75 3.25 0
27.75 3.25 0
28.75 3.25 0
29.75 3.25 0
30.75 3.25 0
31.75 3.25 0
32.75 3.25 0
33.75 3.25 0
34.75 3.25 0
35.75 3.25 0
36.75 3.25 0
37.75 3.25 0
38.75 3.25 0
39.75 3.25 0
40.75 3.25 0
41.75 3.25 0
42.75 3.25 0
43.75 3.25 0
44.75 3.25 0
45.75 3.25 0
46.75 3.25 0
47.75 3.25 0
48.75 3.25 0
49.75 3.25 0
0.25 3.75 0
1.25 3.75 0
2.25 3.75 0
3.25 3.75 0
4.25 3.75 0
5.25 3.75 0
6.25 3.75 0
7.25 3.75 0
8.25 3.75 0
9.25 3.75 0
10.25 3.75 0
11.25 3.75 0
12.25 3.75 0
13.25 3.75 0
14.25 3.75 0
15.25 3.75 0
16.25 3.75 0
17.25 3.75 0
18.25 3.75 0
19.25 3.75 0
20.25 3.75 0
21.25 3.75 0
22.25 3.75 0
23.25 3.75 0
24.25 3.75 0
25.25 3.75 0
26.25 3.75 0
27.25 3.75 0
28.25 3.75 0
29.25 3.75 0
30.25 3.75 0
31.25 3.75 0
32.25 3.75 0
33.25 3.75 0
34.25 3.75 0
35.25 3.75 0
36.25 3.75 0
37.25 3.75 0
38.25 3.75 0
39.25 3.75 0
40.25 3.75 0
41.25 3.75 0
42.25 3.75 0
43.25 3.75 0
44.25 3.75 0
45.25 3.75 0
46.25 3.75 0
47.25 3.75 0
48.25 3.75 0
49.25 3.75 0
0.75 4.25 0
1.75 4.25 0
2.75 4.25 0
3.75 4.25 0
4.75 4.25 0
5.75 4.25 0
6.75 4.25 0
7.75 4.25 0
8.75 4.25 0
9.75 4.25 0
10.75 4.25 0
11.75 4.25 0
12.75 4.25 0
13.75 4.25 0
14.75 4.25 0
15.75 4.25 0
16.75 4.25 0
17.75 4.25 0
18.75 4.25 0
19.75 4.25 0
20.75 4.25 0
21.75 4.25 0
22.75 4.25 0
23.75 4.25 0
24.75 4.25 0
25.75 4.25 0
26.75 4.25 0
27.75 4.25 0
28.75 4.25 0
29.75 4.25 0
30.75 4.25 0
31.75 4.25 0
32.75 4.25 0
33.75 4.25 0
34.75 4.25 0
35.75 4.25 0
36.75 4.25 0
37.75 4.25 0
38.75 4.25 0
39.75 4.25 0
40.75 4.25 0
41.75 4.25 0
42.75 4.25 0
43.75 4.25 0
44.75 4.25 0
45.75 4.25 0
46.75 4.25 0
47.75 4.25 0
48.75 4.25 0
49.75 4.25 0
0.25 4.75 0
1.25 4.75 0
2.25 4.75 0
3.25 4.75 0
4.25 4.75 0
5.25 4.75 0
6.25 4.75 0
7.25 4.75 0
8.25 4.75 0
9.25 4.75 0
10.25 4.75 0
11.25 4.75 0
12.25 4.75 0
13.25 4.75 0
14.25 4.75 0
15.25 4.75 0
16.25 4.75 0
17.25 4.75 0
18.25 4.75 0
19.25 4.75 0
20.25 4.75 0
21.25 4.75 0
22.25 4.75 0
23.25 4.75 0
24.25 4.75 0
25.25 4.75 0
26.25 4.75 0
27.25 4.75 0
28.25 4.75 0
29.25 4.75 0
30.25 4.75 0
31.25 4.75 0
32.25 4.75 0
33.25 4.75 0
34.25 4.75 0
35.25 4.75 0
36.25 4.75 0
37.25 4.75 0
38.25 4.75 0
39.25 4.75 0
40.25 4.75 0
41.25 4.75 0
42.25 4.75 0
43.25 4.75 0
44.25 4.75 0
45.25 4.75 0
46.25 4.75 0
47.25 4.75 0
48.25 4.75 0
49.25 4.75 0
0.75 5.25 0
1.75 5.25 0
2.75 5.25 0
3.75 5.25 0
4.75 5.25 0
5.75 5.25 0
6.75 5.25 0
7.75 5.25 0
8.75 5.25 0
9.75 5.25 0
10.75 5.25 0
11.75 5.25 0
12.75 5.25 0
13.75 5.25 0
14.75 5.25 0
15.75 5.25 0
16.75 5.25 0
17.75 5.25 0
18.75 5.25 0
19.75 5.25 0
20.75 5.25 0
21.75 5.25 0
22.75 5.25 0
23.75 5.25 0
24.75 5.25 0
25.75 5.25 0
26.75 5.25 0
27.75 5.25 0
28.75 5.25 0
29.75 5.25 0
30.75 5.25 0
31.75 5.25 0
32.75 5.25 0
33.75 5.25 0
34.75 5.25 0
35.75 5.25 0
36.75 5.25 0
37.75 5.25 0
38.75 5.25 0
39.75 5.25 0
40.75 5.25 0
41.75 5.25 0
42.75 5.25 0
43.75 5.25 0
44.75 5.25 0
45.75 5.25 0
46.75 5.25 0
47.75 5.25 0
48.75 5.25 0
49.75 5.25 0
0.25 5.75 0
1.25 5.75 0
2.25 5.75 0
3.25 5.75 0
4.25 5.75 0
5.25 5.75 0
6.25 5.75 0
7.25 5.75 0
8.25 5.75 0
9.25 5.75 0
10.25 5.75 0
11.25 5.75 0
12.25 5.75 0
13.25 5.75 0
14.25 5.75 0
15.25 5.75 0
16.25 5.75 0
17.25 5.75 0
18.25 5.75 0
19.25 5.75 0
20.25 5.75 0
21.25 5.75 0
22.25 5.75 0
23.25 5.75 0
24.25 5.75 0
25.25 5.75 0
26.25 5.75 0
27.25 5.75 0
28.25 5.75 0
29.25 5.75 0
30.25 5.75 0
31.25 5.75 0
32.25 5.75 0
33.25 5.75 0
34.25 5.75 0
35.25 5.75 0
36.25 5.75 0
37.25 5.75 0
38.25 5.75 0
39.25 5.75 0
40.25 5.75 0
41.25 5.75 0
42.25 5.75 0
43.25 5.75 0
44.25 5.75 0
45.25 5.75 0
46.25 5.75 0
47.25 5.75 0
48.25 5.75 0
49.25 5.75 0
0.75 6.25 0
1.75 6.25 0
2.75 6.25 0
3.75 6.25 0
4.75 6.25 0
5.75 6.25 0
6.75 6.25 0
7.75 6.25 0
8.75 6.25 0
9.75 6.25 0
10.75 6.25 0
11.75 6.25 0
12.75 6.25 0
13.75 6.25 0
14.75 6.25 0
15.75 6.25 0
16.75 6.25 0
17.75 6.25 0
18.75 6.25 0
19.75 6.25 0
20.75 6.25 0
21.75 6.25 0
22.75 6.25 0
23.75 6.25 0
24.75 6.25 0
25.75 6.25 0
26.75 6.25 0
27.75 6.25 0
28.75 6.25 0
29.75 6.25 0
30.75 6.25 0
31.75 6.25 0
32.75 6.25 0
33.75 6.25 0
34.75 6.25 0
35.75 6.25 0
36.75 6.25 0
37.75 6.25 0
38.75 6.25 0
39.75 6.25 0
40.75 6.25 0
41.75 6.25 0
42.75 6.25 0
43.75 6.25 0
44.75 6.25 0
45.75 6.25 0
46.75 6.25 0
47.75 6.25 0
48.75 6.25 0
49.75 6.25 0
0.25 6.75 0
1.25 6.75 0
2.25 6.75 0
3.25 6.75 0
4.25 6.75 0
5.25 6.75 0
6.25 6.75 0
7.25 6.75 0
8.25 6.75 0
9.25 6.75 0
10.25 6.75 0
11.25 6.75 0
12.25 6.75 0
13.25 6.75 0
14.25 6.75 0
15.25 6.75 0
16.25 6.75 0
17.25 6.75 0
18.25 6.75 0
19.25 6.75 0
20.25 6.75 0
21.25 6.75 0
22.25 6.75 0
23.25 6.75 0
24.25 6.75 0
25.25 6.75 0
26.25 6.75 0
27.25 6.75 0
28.25 6.75 0
29.25 6.75 0
30.25 6.75 0
31.25 6.75 0
32.25 6.75 0
33.25 6.75 0
34.25 6.75 0
35.25 6.75 0
36.25 6.75 0
37.25 6.75 0
38.25 6.75 0
39.25 6.75 0
40.25 6.75 0
41.25 6.75 0
42.25 6.75 0
43.25 6.75 0
44.25 6.75 0
45.25 6.75 0
46.25 6.75 0
47.25 6.75 0
48.25 6.75 0
49.25 6.75 0
0.75 7.25 0
1.75 7.25 0
2.75 7.25 0
3.75 7.25 0
4.75 7.25 0
5.75 7.25 0
6.75 7.25 0
7.75 7.25 0
8.75 7.25 0
9.75 7.25 0
10.75 7.25 0
11.75 7.25 0
12.75 7.25 0
13.75 7.25 0
14.75 7.25 0
15.75 7.25 0
16.75 7.25 0
17.75 7.25 0
18.75 7.25 0
19.75 7.25 0
20.75 7.25 0
21.75 7.25 0
22.75 7.25 0
23.75 7.25 0
24.75 7.25 0
25.75 7.25 0
26.75 7.25 0
27.75 7.25 0
28.75 7.25 0
29.75 7.25 0
30.75 7.25 0
31.75 7.25 0
32.75 7.25 0
33.75 7.25 0
34.75 7.25 0
35.75 7.25 0
36.75 7.25 0
37.75 7.25 0
38.75 7.25 0
39.75 7.25 0
40.75 7.25 0
41.75 7.25 0
42.75 7.25 0
43.75 7.25 0
44.75 7.25 0
45.75 7.25 0
46.75 7.25 0
47.75 7.25 0
48.75 7.25 0
49.75 7.25 0
0.25 7.75 0
1.25 7.75 0
2.25 7.75 0
3.25 7.75 0
4.25 7.75 0
5.25 7.75 0
6.25 7.75 0
7.25 7.75 0
8.25 7.75 0
9.25 7.75 0
10.25 7.75 0
11.25 7.75 0
12.25 7.75 0
13.25 7.75 0
14.25 7.75 0
15.25 7.75 0
16.25 7.75 0
17.25 7.75 0
18.25 7.75 0
19.25 7.75 0
20.25 7.75 0
21.25 7.75 0
[...]
POINT_DATA 5000
VECTORS velocity float
-0.261624 -0.330973 0.906647
-0.106571 -0.401164 0.909786
0.0568515 -0.513835 0.856003
0.19771 -0.642512 0.740331
0.297009 -0.763191 0.573868
0.348772 -0.859376 0.37394
0.353596 -0.922133 0.156974
0.313662 -0.94758 -0.0608903
0.232822 -0.936355 -0.262743
0.118098 -0.893777 -0.432684
-0.0202353 -0.828782 -0.559206
-0.170384 -0.751396 -0.637474
-0.32125 -0.670193 -0.669059
-0.463859 -0.591007 -0.659959
-0.591816 -0.517022 -0.618419
-0.701226 -0.449529 -0.553359
-0.790433 -0.388724 -0.473403
-0.859687 -0.33427 -0.386266
-0.91072 -0.285597 -0.298367
-0.946236 -0.242025 -0.214621
-0.969383 -0.202816 -0.138429
-0.983305 -0.167186 -0.0718329
-0.99081 -0.13434 -0.0157878
-0.994191 -0.103505 0.0295226
-0.995179 -0.0739754 0.0643868
-0.994979 -0.0451393 0.0893277
-0.994342 -0.0165046 0.104937
-0.993657 0.012282 0.111781
-0.993026 0.0414151 0.110379
-0.992332 0.070915 0.10123
-0.991296 0.100625 0.0848938
-0.989537 0.130233 0.0620894
-0.986649 0.159319 0.0337779
-0.982279 0.187421 0.00119408
-0.976214 0.214094 -0.0341948
-0.968444 0.238964 -0.0707985
-0.959179 0.261753 -0.107056
-0.948816 0.282313 -0.141588
-0.937843 0.300685 -0.173316
-0.926707 0.317175 -0.201529
-0.915663 0.332459 -0.225904
-0.904629 0.347686 -0.246496
-0.893054 0.364568 -0.263714
-0.879778 0.385412 -0.278295
-0.862909 0.412954 -0.291302
-0.839813 0.449753 -0.304033
-0.807643 0.496955 -0.317409
-0.764966 0.552893 -0.330359
-0.714371 0.612791 -0.337877
-0.66885 0.66885 -0.324466
-0.330973 -0.261624 0.906647
-0.176022 -0.284599 0.942348
0.011818 -0.374649 0.927091
0.189046 -0.500254 0.84499
0.325989 -0.632137 0.702947
0.409922 -0.748325 0.521511
0.442214 -0.838132 0.319346
0.427061 -0.897431 0.110617
0.368192 -0.92527 -0.0911599
0.270571 -0.923501 -0.271913
0.142062 -0.896806 -0.418996
-0.00689474 -0.851676 -0.524024
-0.165058 -0.794614 -0.584248
-0.322161 -0.730693 -0.601914
-0.469812 -0.663188 -0.58263
-0.601719 -0.594079 -0.533859
-0.713728 -0.524793 -0.46388
-0.803896 -0.456698 -0.381024
-0.872434 -0.391189 -0.292969
-0.921374 -0.329507 -0.206144
-0.953952 -0.272505 -0.125365
-0.973899 -0.220518 -0.0537827
-0.984833 -0.173369 0.00691142
-0.989859 -0.130494 0.0561332
-0.991393 -0.091094 0.0940257
-0.991151 -0.0542945 0.121128
-0.990227 -0.0192601 0.138131
-0.989214 0.0147183 0.145734
-0.98832 0.0481617 0.14458
-0.987462 0.0813624 0.135274
-0.986351 0.114368 0.118456
-0.984574 0.146999 0.0948982
-0.981676 0.178908 0.0656009
-0.977257 0.209654 0.031829
-0.97106 0.238784 -0.00492156
-0.963042 0.265892 -0.0430304
-0.953404 0.290645 -0.0809044
-0.942562 0.31282 -0.117135
-0.931056 0.332337 -0.150623
-0.919418 0.349337 -0.180649
-0.908022 0.364263 -0.206903
-0.896933 0.377959 -0.229476
-0.88577 0.391777 -0.248843
-0.873581 0.407667 -0.265828
-0.858697 0.428193 -0.281585
-0.838599 0.456312 -0.297543
-0.809997 0.494686 -0.314945
-0.769874 0.544285 -0.33324
-0.718183 0.60266 -0.347871
-0.662383 0.662383 -0.349996
-0.284599 -0.176022 0.942348
-0.0905123 -0.226639 0.969764
0.118852 -0.335674 0.93445
0.300815 -0.473213 0.827998
0.427265 -0.609294 0.667986
0.494097 -0.725484 0.479104
0.507913 -0.815067 0.27873
0.474977 -0.876387 0.0796458
0.400587 -0.910116 -0.105915
0.291178 -0.918896 -0.266167
0.155145 -0.906863 -0.391828
0.00199629 -0.878461 -0.47781
-0.158942 -0.837193 -0.523302
-0.319175 -0.785143 -0.530733
-0.471009 -0.723487 -0.504696
-0.607568 -0.653518 -0.451415
-0.723406 -0.577469 -0.378434
-0.815468 -0.498576 -0.293998
-0.883638 -0.420401 -0.206027
-0.930395 -0.345976 -0.121104
-0.959793 -0.27725 -0.043936
-0.976349 -0.215013 0.0226482
-0.984225 -0.159119 0.0773474
-0.986801 -0.108813 0.119933
-0.98655 -0.0630335 0.150819
-0.985102 -0.0206456 0.170725
-0.983392 0.0193952 0.180455
-0.981816 0.0579319 0.180782
-0.980377 0.0955338 0.172437
-0.978809 0.132462 0.156164
-0.976681 0.168681 0.132822
-0.973503 0.203922 0.103479
-0.968834 0.237772 0.0694596
-0.962383 0.26977 0.0323103
-0.954083 0.299477 -0.00630512
-0.944131 0.326516 -0.0447627
-0.932961 0.350599 -0.0816388
-0.921151 0.371568 -0.115835
-0.909294 0.389461 -0.146647
-0.897834 0.404589 -0.173788
-0.886924 0.417618 -0.197385
-0.876292 0.429666 -0.217945
-0.865118 0.442405 -0.236324
-0.851909 0.45814 -0.253691
-0.834344 0.479755 -0.271489
-0.809168 0.51035 -0.291188
-0.77265 0.552262 -0.31308
-0.722717 0.605062 -0.334036
-0.662942 0.662942 -0.347873
-0.612791 0.714371 -0.337877
-0.401164 -0.106571 0.909786
-0.226639 -0.0905123 0.969764
-0.00321736 -0.162601 0.986687
0.221588 -0.288479 0.931493
0.401078 -0.437019 0.805078
0.513782 -0.578329 0.63369
0.563714 -0.69756 0.442308
0.560583 -0.790472 0.24678
0.512205 -0.856822 0.0591789
0.425542 -0.8983 -0.109411
0.308206 -0.917963 -0.249708
0.168305 -0.919295 -0.355766
0.0134924 -0.904945 -0.425314
-0.149389 -0.875892 -0.458799
-0.31361 -0.831659 -0.458249
-0.471538 -0.771604 -0.426941
-0.614654 -0.696688 -0.3699
-0.735271 -0.610549 -0.294291
-0.828949 -0.518928 -0.208702
-0.89566 -0.427826 -0.121487
-0.938952 -0.341798 -0.0392887
-0.964124 -0.263327 0.0335071
-0.976613 -0.193105 0.09454
-0.981073 -0.130625 0.142942
-0.981041 -0.0747409 0.178807
-0.978934 -0.0240593 0.202756
-0.976208 0.0227899 0.215634
-0.973575 0.0669841 0.218322
-0.971197 0.109397 0.211681
-0.968864 0.150537 0.196575
-0.966138 0.190554 0.173971
-0.962493 0.229289 0.145027
-0.957436 0.266389 0.111145
-0.950625 0.301404 0.0739469
-0.94196 0.333878 0.035158
-0.93163 0.363391 -0.00354719
-0.920085 0.389596 -0.0407151
-0.907954 0.41226 -0.0752405
-0.895891 0.431335 -0.106434
-0.88442 0.44703 -0.134039
-0.873772 0.459879 -0.158218
-0.863766 0.470831 -0.17952
-0.853686 0.481339 -0.198832
-0.842176 0.493466 -0.217329
-0.827103 0.5099 -0.236436
-0.805405 0.533765 -0.257718
-0.773166 0.567968 -0.282182
-0.726923 0.613579 -0.308389
-0.666921 0.666921 -0.332316
-0.60266 0.718183 -0.347871
-0.374649 0.011818 0.927091
-0.162601 -0.00321736 0.986687
0.0860206 -0.0929696 0.991946
0.319534 -0.234372 0.918133
0.49109 -0.393362 0.777237
0.589073 -0.54127 0.600017
0.623195 -0.666036 0.409907
0.604956 -0.764754 0.221765
0.543668 -0.837972 0.0472064
0.447825 -0.888036 -0.104133
0.325541 -0.918201 -0.225676
0.18375 -0.931316 -0.314463
0.0276725 -0.928518 -0.370255
-0.138368 -0.908642 -0.393986
-0.308879 -0.86888 -0.386836
-0.475263 -0.806916 -0.350729
-0.626183 -0.723782 -0.289886
-0.751137 -0.625284 -0.211691
-0.844732 -0.52028 -0.125445
-0.907963 -0.41715 -0.0398563
-0.946158 -0.321385 0.03869
-0.966073 -0.235342 0.106379
-0.973968 -0.159172 0.1614
-0.974806 -0.0918156 0.20328
-0.972114 -0.0316962 0.232358
-0.96813 0.0228585 0.249401
-0.964063 0.0733657 0.255344
-0.960349 0.121028 0.25116
-0.9569 0.166646 0.237849
-0.953298 0.210596 0.2165
-0.948979 0.252883 0.188383
-0.943387 0.293252 0.154999
-0.93611 0.331303 0.118054
-0.926994 0.366586 0.0793539
-0.9162 0.398655 0.0406409
-0.904194 0.427108 0.00341628
-0.891654 0.451641 -0.0311925
-0.879316 0.47212 -0.0624999
-0.867792 0.488659 -0.0902743
-0.85741 0.501685 -0.114718
-0.84808 0.512004 -0.136428
-0.839184 0.520894 -0.156334
-0.82948 0.530205 -0.175632
-0.81699 0.54242 -0.195724
-0.798868 0.560544 -0.218172
-0.771311 0.587667 -0.24439
-0.730146 0.625781 -0.274382
-0.673259 0.673259 -0.305689
-0.605062 0.722717 -0.334036
-0.552893 0.764966 -0.330359
-0.513835 0.0568515 0.856003
-0.335674 0.118852 0.93445
-0.0929696 0.0860206 0.991946
0.17564 -0.0192926 0.984265
0.410661 -0.175187 0.8948
0.571253 -0.344348 0.745047
0.655035 -0.500116 0.566403
0.674926 -0.632186 0.380546
0.643657 -0.738207 0.20188
0.572046 -0.819174 0.041451
0.469702 -0.877922 -0.0929148
0.344449 -0.917839 -0.197298
0.201394 -0.941247 -0.271099
0.0431631 -0.948015 -0.315286
-0.128098 -0.935014 -0.330666
-0.307341 -0.897117 -0.317367
-0.483844 -0.830415 -0.276235
-0.642472 -0.736595 -0.211324
-0.769957 -0.624541 -0.130822
-0.861012 -0.506608 -0.0448018
-0.918717 -0.393077 0.0380678
-0.95057 -0.28959 0.112047
-0.964664 -0.197827 0.174032
-0.967815 -0.117188 0.222714
-0.965069 -0.0460538 0.257915
-0.959799 0.017493 0.280142
-0.953978 0.0752945 0.290269
-0.948509 0.128897 0.289338
-0.943534 0.179426 0.278476
-0.938717 0.227535 0.258917
-0.933473 0.273449 0.232064
-0.927176 0.317066 0.199534
-0.919326 0.358086 0.163136
-0.909688 0.396106 0.124767
-0.898372 0.430685 0.0862471
-0.885837 0.461387 0.0491398
-0.872807 0.487846 0.0146118
-0.860103 0.509849 -0.0166386
-0.848443 0.527423 -0.0443917
-0.838268 0.54089 -0.0688829
-0.829601 0.550931 -0.0907569
-0.821933 0.558664 -0.110997
-0.814128 0.565754 -0.130836
-0.804339 0.574487 -0.151668
-0.789912 0.587716 -0.175014
-0.767265 0.608549 -0.202417
-0.732049 0.639505 -0.234814
-0.680604 0.680604 -0.271211
-0.613579 0.726923 -0.308389
-0.544285 0.769874 -0.33324
-0.500254 0.189046 0.84499
-0.288479 0.221588 0.931493
-0.0192926 0.17564 0.984265
0.26202 0.0554888 0.963466
0.492738 -0.113502 0.862744
0.641598 -0.292461 0.709096
0.712615 -0.45686 0.532409
0.720187 -0.597191 0.35312
0.678126 -0.71116 0.185465
0.598617 -0.800055 0.0396313
0.491805 -0.867154 -0.0785596
0.364554 -0.915993 -0.167502
0.219856 -0.948462 -0.22822
0.057919 -0.963279 -0.262183
-0.120726 -0.955348 -0.269696
-0.310564 -0.917109 -0.249922
-0.49763 -0.84326 -0.203167
-0.662443 -0.737018 -0.134066
-0.789738 -0.61124 -0.0519494
-0.875733 -0.481687 0.0326851
-0.926358 -0.35968 0.111759
-0.951217 -0.25025 0.180449
-0.959376 -0.154097 0.236329
-0.957901 -0.0698803 0.278465
-0.951743 0.00444514 0.306864
-0.944021 0.0709942 0.322156
-0.936388 0.131642 0.325343
-0.929416 0.187853 0.317643
-0.922957 0.240598 0.300439
-0.916458 0.290374 0.275295
-0.909235 0.337297 0.243974
-0.900686 0.381225 0.208406
-0.890468 0.421859 0.170591
-0.878609 0.458809 0.13244
-0.865533 0.491645 0.0955867
-0.85199 0.519963 0.061252
-0.838874 0.54349 0.0301629
-0.827016 0.562173 0.0025447
-0.816986 0.576243 -0.0218564
-0.808939 0.586264 -0.0437263
-0.802495 0.593205 -0.0641042
-0.796635 0.598558 -0.0842727
-0.789629 0.604422 -0.105644
-0.778978 0.613493 -0.129693
-0.76133 0.628834 -0.157937
-0.73246 0.653255 -0.191728
-0.687934 0.687934 -0.231289
-0.625781 0.730146 -0.274382
-0.552262 0.77265 -0.31308
-0.496955 0.807643 -0.317409
-0.642512 0.19771 0.740331
-0.473213 0.300815 0.827998
-0.234372 0.319534 0.918133
0.0554888 0.26202 0.963466
0.341702 0.128089 0.931038
0.564677 -0.0520422 0.823669
0.702501 -0.240062 0.669972
0.762567 -0.413199 0.497753
0.75984 -0.562005 0.326793
0.709156 -0.683964 0.171147
0.623748 -0.780608 0.0398586
0.51371 -0.855633 -0.0632001
0.384551 -0.912699 -0.138203
0.23718 -0.953277 -0.187106
0.0697902 -0.974909 -0.211381
-0.118039 -0.970394 -0.210717
-0.319373 -0.929663 -0.183651
-0.516067 -0.846519 -0.130694
-0.684372 -0.726845 -0.057718
-0.808433 -0.588062 0.0248845
-0.887288 -0.448666 0.106859
-0.929931 -0.319984 0.181213
-0.94764 -0.205905 0.244093
-0.95002 -0.106122 0.293599
-0.944141 -0.0187279 0.329009
-0.934748 0.0585532 0.350455
-0.924653 0.127866 0.358703
-0.915164 0.19099 0.354961
-0.906523 0.249228 0.340737
-0.898319 0.303388 0.317772
-0.88985 0.353862 0.288008
-0.880417 0.400735 0.253529
-0.869547 0.443882 0.216463
-0.85715 0.483028 0.178821
-0.843581 0.517799 0.142322
-0.829579 0.547796 0.108248
-0.816094 0.572718 0.077368
-0.804052 0.592458 0.0499316
-0.794155 0.607172 0.0256843
-0.786704 0.617318 0.0039139
-0.781468 0.623728 -0.0164698
-0.777563 0.627726 -0.036809
-0.773376 0.631238 -0.0585538
-0.766533 0.636798 -0.083157
-0.753875 0.647392 -0.112053
-0.73141 0.665982 -0.146657
-0.694509 0.694509 -0.18792
-0.639505 0.732049 -0.234814
-0.567968 0.773166 -0.282182
-0.494686 0.809997 -0.314945
-0.632137 0.325989 0.702947
-0.437019 0.401078 0.805078
-0.175187 0.410661 0.8948
0.128089 0.341702 0.931038
0.412801 0.195992 0.889484
0.626673 0.00701842 0.77925
0.754748 -0.188943 0.628216
0.805655 -0.370341 0.46235
0.794533 -0.527325 0.301075
0.737107 -0.657033 0.158055
0.647224 -0.761196 0.0410135
0.534464 -0.843834 -0.0478684
0.402856 -0.908633 -0.109967
0.251475 -0.95654 -0.14762
0.0769954 -0.983778 -0.162027
-0.121227 -0.980861 -0.15237
-0.33387 -0.935315 -0.117121
-0.537994 -0.840964 -0.0578102
-0.7064 -0.707581 0.0181016
-0.824394 -0.557164 0.0997149
-0.89469 -0.409781 0.177791
-0.929011 -0.275827 0.246695
-0.939701 -0.157844 0.303392
-0.936533 -0.0547043 0.346286
-0.92643 0.0357958 0.37476
-0.913885 0.115945 0.389065
-0.901386 0.187762 0.390189
-0.8899 0.252842 0.37967
-0.879363 0.312315 0.359416
-0.869164 0.366893 0.331578
-0.858535 0.416955 0.298439
-0.846867 0.462625 0.262288
-0.833918 0.503822 0.225263
-0.819933 0.540297 0.18918
-0.805599 0.571719 0.155394
-0.79188 0.597803 0.124729
-0.779775 0.618426 0.0974689
-0.770093 0.633697 0.0733788
-0.763284 0.643988 0.0517379
-0.759278 0.650007 0.031417
-0.757344 0.652923 0.0110134
-0.755991 0.65449 -0.0109788
-0.752952 0.657088 -0.0360201
-0.745216 0.663601 -0.0654684
-0.729021 0.677054 -0.100632
-0.69987 0.69987 -0.142704
-0.653255 0.73246 -0.191728
-0.587667 0.771311 -0.24439
-0.51035 0.809168 -0.291188
-0.449753 0.839813 -0.304033
-0.763191 0.297009 0.573868
-0.609294 0.427265 0.667986
-0.393362 0.49109 0.777237
-0.113502 0.492738 0.862744
0.195992 0.412801 0.889484
0.475064 0.257929 0.841301
0.679718 0.0624041 0.730814
0.799347 -0.140155 0.584295
0.842659 -0.328972 0.426266
0.824808 -0.493593 0.275787
0.762143 -0.630771 0.145829
0.668667 -0.742332 0.0427501
0.553156 -0.83244 -0.0325918
0.41822 -0.904613 -0.0822669
0.261434 -0.959089 -0.108628
0.0784916 -0.990545 -0.112519
-0.130682 -0.987061 -0.0929162
-0.353424 -0.934182 -0.0489398
-0.561853 -0.827079 0.0161577
-0.726826 -0.680434 0.093456
-0.836507 -0.52011 0.172459
-0.897483 -0.366359 0.245573
-0.923497 -0.22801 0.308487
-0.927371 -0.106363 0.358707
-0.918793 0.000192646 0.39474
-0.904495 0.0938562 0.416028
-0.888717 0.176723 0.423026
-0.873644 0.250573 0.417084
-0.859928 0.31681 0.400193
-0.847261 0.376474 0.374721
-0.834907 0.430287 0.343196
-0.822135 0.478703 0.308119
-0.808533 0.52192 0.271798
-0.794184 0.559907 0.236171
-0.779676 0.592474 0.202681
-0.76594 0.619419 0.172211
-0.753995 0.640655 0.145095
-0.744729 0.656282 0.121129
-0.738717 0.666616 0.0996022
-0.736049 0.67226 0.0793632
-0.736155 0.67424 0.0589541
-0.737677 0.67415 0.0368036
-0.738444 0.674218 0.0114143
-0.735548 0.677219 -0.018528
-0.725414 0.686177 -0.0541867
-0.703794 0.703794 -0.0966782
-0.665982 0.73141 -0.146657
-0.608549 0.767265 -0.202417
-0.533765 0.805405 -0.257718
-0.456312 0.838599 -0.297543
-0.748325 0.409922 0.521511
-0.578329 0.513782 0.63369
-0.344348 0.571253 0.745047
-0.0520422 0.564677 0.823669
0.257929 0.475064 0.841301
0.529209 0.313663 0.788387
0.725043 0.113623 0.679266
0.837308 -0.0941372 0.538566
0.874329 -0.289379 0.389627
0.85116 -0.461051 0.250917
0.784412 -0.605498 0.134422
0.687828 -0.724464 0.0452101
0.569231 -0.822005 -0.0168166
0.429966 -0.901227 -0.0540355
0.266464 -0.9614 -0.0686144
0.0739991 -0.995383 -0.0611308
-0.146041 -0.988798 -0.03083
-0.3768 -0.926039 0.0217562
-0.58591 -0.80522 0.0912676
-0.744273 -0.6464 0.168002
-0.844144 -0.477947 0.242874
-0.895548 -0.318994 0.310222
-0.913398 -0.176582 0.366773
-0.910539 -0.0511219 0.41025
-0.896475 0.0590601 0.439141
-0.877778 0.15586 0.453006
-0.858493 0.241026 0.452654
-0.840554 0.316092 0.439948
-0.824356 0.382368 0.417411
-0.809414 0.440937 0.387844
-0.794964 0.492643 0.354028
-0.780416 0.538061 0.318499
-0.765655 0.577475 0.283363
-0.751108 0.610942 0.250172
-0.737607 0.638426 0.219882
-0.726136 0.659943 0.192878
-0.717604 0.675636 0.168998
-0.712671 0.685804 0.147556
-0.711569 0.690971 0.127394
-0.713886 0.692038 0.107009
-0.718397 0.69045 0.0847616
-0.723021 0.688294 0.0590957
-0.724921 0.688234 0.0287015
-0.720651 0.693258 -0.0074634
-0.706211 0.706211 -0.0503128
-0.677054 0.729021 -0.100632
-0.628834 0.76133 -0.157937
-0.560544 0.798868 -0.218172
-0.479755 0.834344 -0.271489
-0.412954 0.862909 -0.291302
-0.859376 0.348772 0.37394
-0.725484 0.494097 0.479104
-0.54127 0.589073 0.600017
-0.292461 0.641598 0.709096
0.00701842 0.626673 0.77925
0.313663 0.529209 0.788387
0.576272 0.363536 0.731951
0.763775 0.160678 0.625165
0.869511 -0.0509465 0.491279
0.901339 -0.251607 0.352536
0.874061 -0.429789 0.226492
0.80413 -0.581391 0.12393
0.704682 -0.707846 0.0487573
0.582525 -0.812812 0.00023626
0.437919 -0.898692 -0.0240667
0.26651 -0.963479 -0.0260888
0.0637943 -0.997943 -0.00639672
-0.166397 -0.985442 0.0348799
-0.402398 -0.91051 0.095118
-0.608509 -0.775779 0.166987
-0.757774 -0.606336 0.241113
-0.847054 -0.431291 0.310626
-0.888914 -0.267736 0.371685
-0.898653 -0.121103 0.421612
-0.888872 0.00854794 0.458076
-0.86893 0.122504 0.479535
-0.845365 0.222112 0.485823
-0.822139 0.308745 0.478293
-0.801005 0.383816 0.45943
-0.782171 0.44871 0.432282
-0.765053 0.504695 0.399971
-0.748952 0.552805 0.365346
-0.733525 0.593758 0.330746
-0.718972 0.627973 0.297874
-0.705948 0.655695 0.267771
-0.69532 0.677133 0.240878
-0.687943 0.692541 0.217074
-0.684503 0.70225 0.195706
-0.68533 0.706739 0.175621
-0.690158 0.706802 0.155285
-0.697888 0.703751 0.132992
-0.706515 0.699545 0.107113
-0.713244 0.69675 0.0763087
-0.714706 0.698302 0.0396117
-0.707102 0.707102 -0.0036789
-0.686177 0.725414 -0.0541867
-0.647392 0.753875 -0.112053
-0.587716 0.789912 -0.175014
-0.5099 0.827103 -0.236436
-0.428193 0.858697 -0.281585
-0.838132 0.442214 0.319346
-0.69756 0.563714 0.442308
-0.500116 0.655035 0.566403
-0.240062 0.702501 0.669972
0.0624041 0.679718 0.730814
0.363536 0.576272 0.731951
0.617226 0.40809 0.672678
0.796804 0.203804 0.568829
0.896667 -0.0104455 0.442583
0.924272 -0.215568 0.315043
0.893957 -0.399775 0.202537
0.821583 -0.55847 0.114511
0.719389 -0.692517 0.0538522
0.593146 -0.804861 0.0194108
0.442205 -0.896871 0.00881657
0.261824 -0.964903 0.0202566
0.0484811 -0.99743 0.0527488
-0.190509 -0.9761 0.104576
-0.428504 -0.887281 0.170638
-0.628268 -0.739272 0.242397
-0.766772 -0.560952 0.312078
-0.845212 -0.380391 0.375393
-0.877591 -0.212235 0.429872
-0.878981 -0.0608499 0.472958
-0.861685 0.0733956 0.502108
-0.835108 0.19098 0.51587
-0.805977 0.292598 0.514574
-0.778313 0.379393 0.500289
-0.753772 0.452877 0.476163
-0.732425 0.514703 0.445684
-0.71367 0.566426 0.412112
-0.696968 0.609314 0.378117
-0.682234 0.64429 0.345611
-0.669847 0.672018 0.315748
-0.660447 0.69302 0.289021
-0.654733 0.707755 0.265344
-0.653326 0.716648 0.24409
-0.656598 0.720173 0.224122
-0.664386 0.719043 0.203884
-0.675704 0.714453 0.181609
-0.688606 0.708247 0.155588
-0.700311 0.702911 0.124426
-0.707476 0.701339 0.0871861
-0.706442 0.706442 0.0433407
-0.693258 0.720651 -0.0074634
-0.663601 0.745216 -0.0654684
-0.613493 0.778978 -0.129693
-0.54242 0.81699 -0.195724
-0.45814 0.851909 -0.253691
-0.385412 0.879778 -0.278295
-0.922133 0.353596 0.156974
-0.815067 0.507913 0.27873
-0.666036 0.623195 0.409907
-0.45686 0.712615 0.532409
-0.188943 0.754748 0.628216
0.113623 0.725043 0.679266
0.40809 0.617226 0.672678
0.65284 0.447864 0.610915
0.82478 0.243313 0.510429
0.919315 0.0275864 0.392555
0.943604 -0.181088 0.277161
0.911254 -0.370865 0.179097
0.837104 -0.536598 0.106393
0.732231 -0.678316 0.0610359
0.601345 -0.797906 0.0415932
0.443081 -0.895314 0.0457412
0.252787 -0.964875 0.0715185
0.0288501 -0.992721 0.116932
-0.216953 -0.959814 0.178013
-0.453488 -0.856258 0.247328
-0.644184 -0.696341 0.316442
-0.771045 -0.510779 0.380256
-0.838675 -0.325158 0.436917
-0.861416 -0.151842 0.484672
-0.853743 0.00503545 0.520671
-0.827841 0.144081 0.542144
-0.793528 0.264667 0.547964
-0.758019 0.366944 0.539221
-0.725538 0.452113 0.518834
-0.69769 0.522059 0.490594
-0.674465 0.578871 0.458263
-0.655312 0.624476 0.424966
-0.639847 0.660464 0.392915
-0.628069 0.688085 0.363414
-0.620242 0.708329 0.337
-0.616763 0.721982 0.3136
-0.618059 0.72965 0.292598
-0.624446 0.731855 0.272864
-0.635815 0.729258 0.25283
-0.651255 0.72295 0.230674
-0.668859 0.714678 0.204605
-0.685823 0.706868 0.17316
-0.69879 0.702396 0.135396
-0.704179 0.704179 0.0909075
-0.698302 0.714706 0.0396117
-0.677219 0.735548 -0.018528
-0.636798 0.766533 -0.083157
-0.574487 0.804339 -0.151668