# vtk DataFile Version 2.0
tmp/0.000.00-10.000.000.001.0011.vtk
ASCII
DATASET UNSTRUCTURED_GRID
POINTS 5000 float
0.75 0.25 0
1.75 0.25 0
2.75 0.25 0
3.75 0.25 0
4.75 0.25 0
5.75 0.25 0
6.75 0.25 0
7.75 0.25 0
8.75 0.25 0
9.75 0.25 0
10.75 0.25 0
11.75 0.25 0
12.75 0.25 0
13.75 0.25 0
14.75 0.25 0
15.75 0.25 0
16.75 0.25 0
17.75 0.25 0
18.75 0.25 0
19.75 0.25 0
20.75 0.25 0
21.75 0.25 0
22.75 0.25 0
23.75 0.25 0
24.75 0.25 0
25.75 0.25 0
26.75 0.25 0
27.75 0.25 0
28.75 0.25 0
29.75 0.25 0
30.75 0.25 0
31.75 0.25 0
32.75 0.25 0
33.75 0.25 0
34.75 0.25 0
35.75 0.25 0
36.75 0.25 0
37.75 0.25 0
38.75 0.25 0
39.75 0.25 0
40.75 0.25 0
41.75 0.25 0
42.75 0.25 0
43.75 0.25 0
44.75 0.25 0
45.75 0.25 0
46.75 0.25 0
47.75 0.25 0
48.75 0.25 0
49.75 0.25 0
0.25 0.75 0
1.25 0.75 0
2.25 0.75 0
3.25 0.75 0
4.25 0.75 0
5.25 0.75 0
6.25 0.75 0
7.25 0.75 0
8.25 0.75 0
9.25 0.75 0
10.25 0.75 0
11.25 0.75 0
12.25 0.75 0
13.25 0.75 0
14.25 0.75 0
15.25 0.75 0
16.25 0.75 0
17.25 0.75 0
18.25 0.75 0
19.25 0.75 0
20.25 0.75 0
21.25 0.75 0
22.25 0.75 0
23.25 0.75 0
24.25 0.75 0
25.25 0.75 0
26.25 0.75 0
27.25 0.75 0
28.25 0.75 0
29.25 0.75 0
30.25 0.75 0
31.25 0.75 0
32.25 0.75 0
33.25 0.75 0
34.25 0.75 0
35.25 0.75 0
36.25 0.75 0
37.25 0.75 0
38.25 0.75 0
39.25 0.75 0
40.25 0.75 0
41.25 0.75 0
42.25 0.75 0
43.25 0.75 0
44.25 0.75 0
45.25 0.75 0
46.25 0.75 0
47.25 0.75 0
48.25 0.75 0
49.25 0.75 0
0.75 1.25 0
1.75 1.25 0
2.75 1.25 0
3.75 1.25 0
4.75 1.25 0
5.75 1.25 0
6.75 1.25 0
7.75 1.25 0
8.75 1.25 0
9.75 1.25 0
10.75 1.25 0
11.75 1.25 0
12.75 1.25 0
13.75 1.25 0
14.75 1.25 0
15.75 1.25 0
16.75 1.25 0
17.75 1.25 0
18.75 1.25 0
19.75 1.25 0
20.75 1.25 0
21.75 1.25 0
22.75 1.25 0
23.75 1.25 0
24.75 1.25 0
25.75 1.25 0
26.75 1.25 0
27.75 1.25 0
28.75 1.25 0
29.75 1.25 0
30.75 1.25 0
31.75 1.25 0
32.75 1.25 0
33.75 1.25 0
34.75 1.25 0
35.75 1.25 0
36.75 1.25 0
37.75 1.25 0
38.75 1.25 0
39.75 1.25 0
40.75 1.25 0
41.75 1.25 0
42.75 1.25 0
43.75 1.25 0
44.75 1.25 0
45.75 1.25 0
46.75 1.25 0
47.75 1.25 0
48.75 1.25 0
49.75 1.25 0
0.25 1.75 0
1.25 1.75 0
2.25 1.75 0
3.25 1.75 0
4.25 1.75 0
5.25 1.75 0
6.25 1.75 0
7.25 1.75 0
8.25 1.75 0
9.25 1.75 0
10.25 1.75 0
11.25 1.75 0
12.25 1.75 0
13.25 1.75 0
14.25 1.75 0
15.25 1.75 0
16.25 1.75 0
17.25 1.75 0
18.25 1.75 0
19.25 1.75 0
20.25 1.75 0
21.25 1.75 0
22.25 1.75 0
23.25 1.75 0
24.25 1.75 0
25.25 1.75 0
26.25 1.75 0
27.25 1.75 0
28.25 1.75 0
29.25 1.75 0
30.25 1.75 0
31.25 1.75 0
32.25 1.75 0
33.25 1.75 0
34.25 1.75 0
35.25 1.75 0
36.25 1.75 0
37.25 1.75 0
38.25 1.75 0
39.25 1.75 0
40.25 1.75 0
41.25 1.75 0
42.25 1.75 0
43.25 1.75 0
44.25 1.75 0
45.25 1.75 0
46.25 1.75 0
47.25 1.75 0
48.25 1.75 0
49.25 1.75 0
0.75 2.25 0
1.75 2.25 0
2.75 2.25 0
3.75 2.25 0
4.75 2.25 0
5.75 2.25 0
6.75 2.25 0
7.75 2.25 0
8.75 2.25 0
9.75 2.25 0
10.75 2.25 0
11.75 2.25 0
12.75 2.25 0
13.75 2.25 0
14.75 2.25 0
15.75 2.25 0
16.75 2.25 0
17.75 2.25 0
18.75 2.25 0
19.75 2.25 0
20.75 2.25 0
21.75 2.25 0
22.75 2.25 0
23.75 2.25 0
24.75 2.25 0
25.75 2.25 0
26.75 2.25 0
27.75 2.25 0
28.75 2.25 0
29.75 2.25 0
30.75 2.25 0
31.75 2.25 0
32.75 2.25 0
33.75 2.25 0
34.75 2.25 0
35.75 2.25 0
36.75 2.25 0
37.75 2.25 0
38.75 2.25 0
39.75 2.25 0
40.75 2.25 0
41.75 2.25 0
42.75 2.25 0
43.75 2.25 0
44.75 2.25 0
45.75 2.25 0
46.75 2.25 0
47.75 2.25 0
48.75 2.25 0
49.75 2.25 0
0.25 2.75 0
1.25 2.75 0
2.25 2.75 0
3.25 2.75 0
4.25 2.75 0
5.25 2.75 0
6.25 2.75 0
7.25 2.75 0
8.25 2.75 0
9.25 2.75 0
10.25 2.75 0
11.25 2.75 0
12.25 2.75 0
13.25 2.75 0
14.25 2.75 0
15.25 2.75 0
16.25 2.75 0
17.25 2.75 0
18.25 2.75 0
19.25 2.75 0
20.25 2.75 0
21.25 2.75 0
22.25 2.75 0
23.25 2.75 0
24.25 2.75 0
25.25 2.75 0
26.25 2.75 0
27.25 2.75 0
28.25 2.75 0
29.25 2.75 0
30.25 2.75 0
31.25 2.75 0
32.25 2.75 0
33.25 2.75 0
34.25 2.75 0
35.25 2.75 0
36.25 2.75 0
37.25 2.75 0
38.25 2.75 0
39.25 2.75 0
40.25 2.75 0
41.25 2.75 0
42.25 2.75 0
43.25 2.75 0
44.25 2.75 0
45.25 2.75 0
46.25 2.75 0
47.25 2.75 0
48.25 2.75 0
49.25 2.75 0
0.75 3.25 0
1.75 3.25 0
2.75 3.25 0
3.75 3.25 0
4.75 3.25 0
5.75 3.25 0
6.75 3.25 0
7.75 3.25 0
8.75 3.25 0
9.75 3.25 0
10.75 3.25 0
11.75 3.25 0
12.75 3.25 0
13.75 3.25 0
14.75 3.25 0
15.75 3.25 0
16.75 3.25 0
17.75 3.25 0
18.75 3.25 0
19.75 3.25 0
20.75 3.25 0
21.75 3.25 0
22.75 3.25 0
23.75 3.25 0
24.75 3.25 0
25.75 3.25 0
26.75 3.25 0
27.75 3.25 0
28.75 3.25 0
29.75 3.25 0
30.75 3.25 0
31.75 3.25 0
32.75 3.25 0
33.75 3.25 0
34.75 3.25 0
35.75 3.25 0
36.75 3.25 0
37.75 3.25 0
38.75 3.25 0
39.75 3.25 0
40.75 3.25 0
41.75 3.25 0
42.75 3.25 0
43.75 3.25 0
44.75 3.25 0
45.75 3.25 0
46.75 3.25 0
47.75 3.25 0
48.75 3.25 0
49.75 3.25 0
0.25 3.75 0
1.25 3.75 0
2.25 3.75 0
3.25 3.75 0
4.25 3.75 0
5.25 3.75 0
6.25 3.75 0
7.25 3.75 0
8.25 3.75 0
9.25 3.75 0
10.25 3.75 0
11.25 3.75 0
12.25 3.75 0
13.25 3.75 0
14.25 3.75 0
15.25 3.75 0
16.25 3.75 0
17.25 3.75 0
18.25 3.75 0
19.25 3.75 0
20.25 3.75 0
21.25 3.75 0
22.25 3.75 0
23.25 3.75 0
24.25 3.75 0
25.25 3.75 0
26.25 3.75 0
27.25 3.75 0
28.25 3.75 0
29.25 3.75 0
30.25 3.75 0
31.25 3.75 0
32.25 3.75 0
33.25 3.75 0
34.25 3.75 0
35.25 3.75 0
36.25 3.75 0
37.25 3.75 0
38.25 3.75 0
39.25 3.75 0
40.25 3.75 0
41.25 3.75 0
42.25 3.75 0
43.25 3.75 0
44.25 3.75 0
45.25 3.75 0
46.25 3.75 0
47.25 3.75 0
48.25 3.75 0
49.25 3.75 0
0.75 4.25 0
1.75 4.25 0
2.75 4.25 0
3.75 4.25 0
4.75 4.25 0
5.75 4.25 0
6.75 4.25 0
7.75 4.25 0
8.75 4.25 0
9.75 4.25 0
10.75 4.25 0
11.75 4.25 0
12.75 4.25 0
13.75 4.25 0
14.75 4.25 0
15.75 4.25 0
16.75 4.25 0
17.75 4.25 0
18.75 4.25 0
19.75 4.25 0
20.75 4.25 0
21.75 4.25 0
22.75 4.25 0
23.75 4.25 0
24.75 4.25 0
25.75 4.25 0
26.75 4.25 0
27.75 4.25 0
28.75 4.25 0
29.75 4.25 0
30.75 4.25 0
31.75 4.25 0
32.75 4.25 0
33.75 4.25 0
34.75 4.25 0
35.75 4.25 0
36.75 4.25 0
37.75 4.25 0
38.75 4.25 0
39.75 4.25 0
40.75 4.25 0
41.75 4.25 0
42.75 4.25 0
43.75 4.25 0
44.75 4.25 0
45.75 4.25 0
46.75 4.25 0
47.75 4.25 0
48.75 4.25 0
49.75 4.25 0
0.25 4.75 0
1.25 4.75 0
2.25 4.75 0
3.25 4.75 0
4.25 4.75 0
5.25 4.75 0
6.25 4.75 0
7.25 4.75 0
8.25 4.75 0
9.25 4.75 0
10.25 4.75 0
11.25 4.75 0
12.25 4.75 0
13.25 4.75 0
14.25 4.75 0
15.25 4.75 0
16.25 4.75 0
17.25 4.75 0
18.25 4.75 0
19.25 4.75 0
20.25 4.75 0
21.25 4.75 0
22.25 4.75 0
23.25 4.75 0
24.25 4.75 0
25.25 4.75 0
26.25 4.75 0
27.25 4.75 0
28.25 4.75 0
29.25 4.75 0
30.25 4.75 0
31.25 4.75 0
32.25 4.75 0
33.25 4.75 0
34.25 4.75 0
35.25 4.75 0
36.25 4.75 0
37.25 4.75 0
38.25 4.75 0
39.25 4.75 0
40.25 4.75 0
41.25 4.75 0
42.25 4.75 0
43.25 4.75 0
44.25 4.75 0
45.25 4.75 0
46.25 4.75 0
47.25 4.75 0
48.25 4.75 0
49.25 4.75 0
0.75 5.25 0
1.75 5.25 0
2.75 5.25 0
3.75 5.25 0
4.75 5.25 0
5.75 5.25 0
6.75 5.25 0
7.75 5.25 0
8.75 5.25 0
9.75 5.25 0
10.75 5.25 0
11.75 5.25 0
12.75 5.25 0
13.75 5.25 0
14.75 5.25 0
15.75 5.25 0
16.75 5.25 0
17.75 5.25 0
18.75 5.25 0
19.75 5.25 0
20.75 5.25 0
21.75 5.25 0
22.75 5.25 0
23.75 5.25 0
24.75 5.25 0
25.75 5.25 0
26.75 5.25 0
27.75 5.25 0
28.75 5.25 0
29.75 5.25 0
30.75 5.25 0
31.75 5.25 0
32.75 5.25 0
33.75 5.25 0
34.75 5.25 0
35.75 5.25 0
36.75 5.25 0
37.75 5.25 0
38.75 5.25 0
39.75 5.25 0
40.75 5.25 0
41.75 5.25 0
42.75 5.25 0
43.75 5.25 0
44.75 5.25 0
45.75 5.25 0
46.75 5.25 0
47.75 5.25 0
48.75 5.25 0
49.75 5.25 0
0.25 5.75 0
1.25 5.75 0
2.25 5.75 0
3.25 5.75 0
4.25 5.75 0
5.25 5.75 0
6.25 5.75 0
7.25 5.75 0
8.25 5.75 0
9.25 5.75 0
10.25 5.75 0
11.25 5.75 0
12.25 5.75 0
13.25 5.75 0
14.25 5.75 0
15.25 5.75 0
16.25 5.75 0
17.25 5.75 0
18.25 5.75 0
19.25 5.75 0
20.25 5.75 0
21.25 5.75 0
22.25 5.75 0
23.25 5.75 0
24.25 5.75 0
25.25 5.75 0
26.25 5.75 0
27.25 5.75 0
28.25 5.75 0
29.25 5.75 0
30.25 5.75 0
31.25 5.75 0
32.25 5.75 0
33.25 5.75 0
34.25 5.75 0
35.25 5.75 0
36.25 5.75 0
37.25 5.75 0
38.25 5.75 0
39.25 5.75 0
40.25 5.75 0
41.25 5.75 0
42.25 5.75 0
43.25 5.75 0
44.25 5.75 0
45.25 5.75 0
46.25 5.75 0
47.25 5.75 0
48.25 5.75 0
49.25 5.75 0
0.75 6.25 0
1.75 6.25 0
2.75 6.25 0
3.75 6.25 0
4.75 6.25 0
5.75 6.25 0
6.75 6.25 0
7.75 6.25 0
8.75 6.25 0
9.75 6.25 0
10.75 6.25 0
11.75 6.25 0
12.75 6.25 0
13.75 6.25 0
14.75 6.25 0
15.75 6.25 0
16.75 6.25 0
17.75 6.25 0
18.75 6.25 0
19.75 6.25 0
20.75 6.25 0
21.75 6.25 0
22.75 6.25 0
23.75 6.25 0
24.75 6.25 0
25.75 6.25 0
26.75 6.25 0
27.75 6.25 0
28.75 6.25 0
29.75 6.25 0
30.75 6.25 0
31.75 6.25 0
32.75 6.25 0
33.75 6.25 0
34.75 6.25 0
35.75 6.25 0
36.75 6.25 0
37.75 6.25 0
38.75 6.25 0
39.75 6.25 0
40.75 6.25 0
41.75 6.25 0
42.75 6.25 0
43.75 6.25 0
44.75 6.25 0
45.75 6.25 0
46.75 6.25 0
47.75 6.25 0
48.75 6.25 0
49.75 6.25 0
0.25 6.75 0
1.25 6.75 0
2.25 6.75 0
3.25 6.75 0
4.25 6.75 0
5.25 6.75 0
6.25 6.75 0
7.25 6.75 0
8.25 6.75 0
9.25 6.75 0
10.25 6.75 0
11.25 6.75 0
12.25 6.75 0
13.25 6.75 0
14.25 6.75 0
15.25 6.75 0
16.25 6.75 0
17.25 6.75 0
18.25 6.75 0
19.25 6.75 0
20.25 6.75 0
21.25 6.75 0
22.25 6.75 0
23.25 6.75 0
24.25 6.75 0
25.25 6.75 0
26.25 6.75 0
27.25 6.75 0
28.25 6.75 0
29.25 6.75 0
30.25 6.75 0
31.25 6.75 0
32.25 6.75 0
33.25 6.75 0
34.25 6.75 0
35.25 6.75 0
36.25 6.75 0
37.25 6.75 0
38.25 6.75 0
39.25 6.75 0
40.25 6.75 0
41.25 6.75 0
42.25 6.75 0
43.25 6.75 0
44.25 6.75 0
45.25 6.75 0
46.25 6.75 0
47.25 6.75 0
48.25 6.75 0
49.25 6.75 0
0.75 7.25 0
1.75 7.25 0
2.75 7.25 0
3.75 7.25 0
4.75 7.25 0
5.75 7.25 0
6.75 7.25 0
7.75 7.25 0
8.75 7.25 0
9.75 7.25 0
10.75 7.25 0
11.75 7.25 0
12.75 7.25 0
13.75 7.25 0
14.75 7.25 0
15.75 7.25 0
16.75 7.25 0
17.75 7.25 0
18.75 7.25 0
19.75 7.25 0
20.75 7.25 0
21.75 7.25 0
22.75 7.25 0
23.75 7.25 0
24.75 7.25 0
25.75 7.25 0
26.75 7.25 0
27.75 7.25 0
28.75 7.25 0
29.75 7.25 0
30.75 7.25 0
31.75 7.25 0
32.75 7.25 0
33.75 7.25 0
34.75 7.25 0
35.75 7.25 0
36.75 7.25 0
37.75 7.25 0
38.75 7.25 0
39.75 7.25 0
40.75 7.25 0
41.75 7.25 0
42.75 7.25 0
43.75 7.25 0
44.75 7.25 0
45.75 7.25 0
46.75 7.25 0
47.75 7.25 0
48.75 7.25 0
49.75 7.25 0
0.25 7.75 0
1.25 7.75 0
2.25 7.75 0
3.25 7.75 0
4.25 7.75 0
5.25 7.75 0
6.25 7.75 0
7.25 7.75 0
8.25 7.75 0
9.25 7.75 0
10.25 7.75 0
11.25 7.75 0
12.25 7.75 0
13.25 7.75 0
14.25 7.75 0
15.25 7.75 0
16.25 7.75 0
17.25 7.75 0
18.25 7.75 0
19.25 7.75 0
20.25 7.75 0
21.25 7.75 0
[...]
POINT_DATA 5000
VECTORS velocity float
0.00745845 -0.0975655 0.995201
0.198947 -0.200904 0.959196
0.37456 -0.347715 0.859534
0.498134 -0.506974 0.703449
0.55553 -0.655919 0.511034
0.546886 -0.779594 0.305201
0.480999 -0.870246 0.106354
0.370727 -0.926097 -0.0700489
0.229776 -0.949476 -0.213772
0.0710001 -0.945009 -0.319244
-0.0943667 -0.918146 -0.384841
-0.256985 -0.874155 -0.412082
-0.409437 -0.817622 -0.404791
-0.546163 -0.752344 -0.368352
-0.663415 -0.681431 -0.309084
-0.759223 -0.607432 -0.23368
-0.833314 -0.532425 -0.148697
-0.886894 -0.458048 -0.0600899
-0.922307 -0.385504 0.0271233
-0.942609 -0.31559 0.109049
-0.951137 -0.248741 0.182937
-0.951152 -0.185106 0.247074
-0.945574 -0.124631 0.300595
-0.93683 -0.0671398 0.343282
-0.926798 -0.0124193 0.375354
-0.916827 0.0397197 0.397304
-0.907795 0.0893926 0.409777
-0.900197 0.136616 0.413498
-0.894235 0.181306 0.409232
-0.88989 0.2233 0.397786
-0.886983 0.26239 0.380017
-0.885231 0.298373 0.356846
-0.884288 0.331082 0.329271
-0.883786 0.360427 0.298352
-0.883384 0.386405 0.265186
-0.882802 0.409102 0.230859
-0.881843 0.428702 0.196386
-0.880388 0.445491 0.162648
-0.878363 0.459881 0.130334
-0.87567 0.472461 0.0999121
-0.87211 0.484043 0.0716081
-0.867303 0.495703 0.0454218
-0.860646 0.508764 0.0211721
-0.851314 0.524654 -0.00139794
-0.83837 0.544639 -0.0224365
-0.820936 0.569493 -0.0417453
-0.798359 0.599333 -0.0585161
-0.770348 0.633673 -0.070874
-0.737627 0.670972 -0.0755172
-0.705463 0.705463 -0.0681475
-0.0975655 0.00745845 0.995201
0.0984703 -0.0464945 0.994053
0.310183 -0.171572 0.935067
0.480523 -0.331988 0.811715
0.584431 -0.498042 0.640621
0.616643 -0.648821 0.445851
0.584176 -0.772169 0.249987
0.49984 -0.863269 0.070193
0.377703 -0.922268 -0.0822382
0.230862 -0.952037 -0.200819
0.0707119 -0.956564 -0.282815
-0.0931856 -0.939917 -0.328438
-0.252987 -0.905717 -0.340108
-0.402373 -0.857048 -0.321816
-0.536409 -0.796639 -0.278626
-0.651564 -0.727108 -0.216282
-0.745822 -0.651091 -0.140818
-0.818753 -0.571195 -0.0581287
-0.871415 -0.489833 0.0264456
-0.906055 -0.409031 0.108432
-0.925686 -0.330314 0.184384
-0.933644 -0.254686 0.251882
-0.933209 -0.182692 0.309426
-0.927335 -0.114528 0.356276
-0.918481 -0.0501658 0.392271
-0.908541 0.0105356 0.417664
-0.898856 0.0677291 0.432978
-0.890278 0.121514 0.438907
-0.883253 0.171905 0.436249
-0.877921 0.218832 0.425872
-0.874197 0.262171 0.408711
-0.871842 0.301789 0.385766
-0.870517 0.337587 0.358099
-0.869844 0.369533 0.326829
-0.869451 0.397679 0.293099
-0.869023 0.422157 0.258037
-0.868334 0.443176 0.222692
-0.867253 0.461018 0.187975
-0.865721 0.476052 0.154601
-0.863687 0.488779 0.123044
-0.861031 0.499881 0.093516
-0.857468 0.51029 0.065972
-0.852474 0.521227 0.0401372
-0.845241 0.534159 0.0155875
-0.834715 0.550623 -0.00808857
-0.819734 0.571904 -0.0310306
-0.79924 0.598693 -0.0527416
-0.77254 0.630941 -0.0713895
-0.739953 0.667583 -0.0824718
-0.704735 0.704735 -0.0818382
-0.0464945 0.0984703 0.994053
0.184743 0.015386 0.982666
0.403469 -0.129877 0.905729
0.564663 -0.304335 0.767161
0.650239 -0.479442 0.589343
0.661454 -0.63551 0.398254
0.61035 -0.762335 0.215217
0.512437 -0.857001 0.0543928
0.382408 -0.920843 -0.0762416
0.232638 -0.957034 -0.173106
0.0730853 -0.969079 -0.235677
-0.0883233 -0.960046 -0.26554
-0.24516 -0.93237 -0.265674
-0.39203 -0.888097 -0.239993
-0.524363 -0.829311 -0.193096
-0.638552 -0.758505 -0.130085
-0.732285 -0.678665 -0.056316
-0.804835 -0.593054 0.0229669
-0.857068 -0.5048 0.103007
-0.891157 -0.416543 0.17981
-0.910114 -0.330243 0.250263
-0.917318 -0.24719 0.312131
-0.916112 -0.168116 0.363972
-0.909523 -0.0933553 0.405034
-0.900075 -0.0229949 0.435128
-0.889709 0.0429995 0.454499
-0.87978 0.104684 0.463712
-0.871124 0.162074 0.463546
-0.86415 0.215129 0.454933
-0.858944 0.263763 0.438912
-0.855363 0.307887 0.416606
-0.853111 0.347454 0.3892
-0.851819 0.382493 0.357916
-0.851098 0.41312 0.323983
-0.850604 0.439533 0.288588
-0.850079 0.462003 0.252823
-0.849364 0.480856 0.21762
-0.848387 0.496479 0.183704
-0.847107 0.509356 0.151546
-0.845435 0.52011 0.121348
-0.84314 0.529583 0.0930392
-0.839759 0.538896 0.0663009
-0.834529 0.549464 0.0406301
-0.826382 0.562897 0.0154708
-0.814032 0.580742 -0.00954686
-0.796179 0.604092 -0.0342438
-0.771788 0.633295 -0.0572796
-0.740633 0.667718 -0.0749373
-0.704711 0.704711 -0.0822459
-0.670972 0.737627 -0.0755172
-0.200904 0.198947 0.959196
0.015386 0.184743 0.982666
0.265843 0.0790829 0.960767
0.485726 -0.083652 0.870099
0.636168 -0.27163 0.722155
0.704628 -0.456425 0.5433
0.697862 -0.619119 0.360111
0.631842 -0.750944 0.191984
0.523834 -0.850343 0.0501517
0.388563 -0.919451 -0.0602409
0.237399 -0.96157 -0.137933
0.0788195 -0.979755 -0.184033
-0.080721 -0.976259 -0.201004
-0.235883 -0.952615 -0.192052
-0.381773 -0.91015 -0.160859
-0.513772 -0.850644 -0.111548
-0.627893 -0.776778 -0.0486497
-0.721423 -0.69211 0.0230783
-0.793403 -0.600595 0.0989787
-0.844671 -0.505933 0.174824
-0.877479 -0.41111 0.247021
-0.894952 -0.318261 0.312685
-0.900573 -0.228775 0.369635
-0.897793 -0.14349 0.416388
-0.889739 -0.0628816 0.452118
-0.879028 0.0127981 0.476598
-0.867664 0.0834113 0.490104
-0.857026 0.148862 0.493302
-0.847935 0.209057 0.487137
-0.840753 0.263901 0.472748
-0.835503 0.313325 0.451401
-0.831969 0.357322 0.424439
-0.8298 0.39598 0.393233
-0.828591 0.429485 0.359137
-0.82796 0.458117 0.323435
-0.827604 0.482225 0.287282
-0.827323 0.502203 0.251653
-0.827015 0.51849 0.217287
-0.826631 0.531585 0.184659
-0.826093 0.542095 0.153958
-0.825205 0.550807 0.125092
-0.823553 0.55876 0.0977126
-0.820425 0.567296 0.0712644
-0.814775 0.578021 0.0450917
-0.805269 0.592617 0.0186414
-0.790451 0.61247 -0.00821102
-0.769027 0.638275 -0.034673
-0.740293 0.669757 -0.0582318
-0.705129 0.705129 -0.0747494
-0.667583 0.739953 -0.0824718
-0.171572 0.310183 0.935067
0.0790829 0.265843 0.960767
0.341224 0.142122 0.929176
0.558965 -0.0358725 0.828415
0.697935 -0.236494 0.675986
0.750702 -0.430901 0.500771
0.728768 -0.600675 0.328766
0.65103 -0.738141 0.176942
0.535645 -0.84273 0.0537592
0.39685 -0.917097 -0.0380045
0.244807 -0.96452 -0.0988467
0.0865987 -0.987598 -0.130962
-0.0724712 -0.987878 -0.137278
-0.227677 -0.966191 -0.120991
-0.374123 -0.923429 -0.0855007
-0.506746 -0.861404 -0.0345129
-0.621025 -0.783293 0.0279246
-0.713941 -0.693371 0.0975926
-0.784545 -0.596201 0.170391
-0.833871 -0.495798 0.242575
-0.864393 -0.395214 0.310855
-0.8794 -0.296559 0.372436
-0.882504 -0.201251 0.42507
-0.877278 -0.110267 0.467146
-0.86698 -0.024304 0.49775
-0.854347 0.0561296 0.516663
-0.841466 0.130664 0.524273
-0.829748 0.199031 0.521444
-0.819992 0.261048 0.509379
-0.812497 0.31662 0.489491
-0.807196 0.365762 0.463305
-0.803791 0.408615 0.432382
-0.801864 0.445443 0.39824
-0.800984 0.476618 0.362298
-0.800786 0.502586 0.325807
-0.801008 0.523833 0.289802
-0.801502 0.540871 0.255055
-0.802189 0.554246 0.222048
-0.802986 0.564578 0.19096
-0.803713 0.572629 0.161682
-0.803994 0.579379 0.133837
-0.803165 0.586101 0.106828
-0.800216 0.594362 0.0799274
-0.793806 0.605906 0.0524384
-0.782388 0.62233 0.0239762
-0.764463 0.644647 -0.00513661
-0.738966 0.672916 -0.0333646
-0.705926 0.705926 -0.0577637
-0.667718 0.740633 -0.0749373
-0.633673 0.770348 -0.070874
-0.347715 0.37456 0.859534
-0.129877 0.403469 0.905729
0.142122 0.341224 0.929176
0.41108 0.203118 0.888682
0.624292 0.0116846 0.781103
0.751521 -0.200483 0.628509
0.79019 -0.403969 0.460878
0.755748 -0.580762 0.30259
0.669 -0.724048 0.167909
0.548238 -0.833961 0.0628003
0.406833 -0.913426 -0.0118463
0.253704 -0.965555 -0.0577743
0.0947757 -0.992452 -0.0778279
-0.0653635 -0.99503 -0.0751192
-0.222081 -0.973601 -0.0527409
-0.370026 -0.928918 -0.013837
-0.503465 -0.863169 0.038234
-0.61742 -0.780267 0.0998798
-0.708841 -0.685206 0.167443
-0.777074 -0.582924 0.237394
-0.823509 -0.477436 0.306411
-0.850867 -0.371625 0.371377
-0.862576 -0.267499 0.429427
-0.862356 -0.166564 0.478119
-0.853922 -0.0700637 0.515664
-0.840703 0.0209501 0.54109
-0.825603 0.105624 0.554277
-0.81082 0.183327 0.555844
-0.7978 0.253649 0.546972
-0.787302 0.316388 0.529201
-0.779537 0.371539 0.504263
-0.774327 0.419283 0.473941
-0.771271 0.459969 0.439966
-0.769891 0.494074 0.403929
-0.769741 0.522164 0.367211
-0.770474 0.544844 0.33093
-0.771867 0.562728 0.295903
-0.773787 0.576438 0.262627
-0.776124 0.586636 0.231278
-0.778698 0.594085 0.201726
-0.781151 0.599731 0.173568
-0.782858 0.604787 0.146172
-0.782851 0.610771 0.118756
-0.779807 0.619442 0.090515
-0.772127 0.632548 0.060856
-0.758161 0.65139 0.029728
-0.736556 0.676374 -0.00202071
-0.706734 0.706734 -0.0324553
-0.669757 0.740293 -0.0582318
-0.630941 0.77254 -0.0713895
-0.331988 0.480523 0.811715
-0.083652 0.485726 0.870099
0.203118 0.41108 0.888682
0.475135 0.260952 0.840328
0.682013 0.0577495 0.729056
0.797696 -0.164646 0.580148
0.824107 -0.376359 0.423322
0.779683 -0.559812 0.280545
0.686153 -0.708878 0.163358
0.561358 -0.824113 0.0755957
0.417613 -0.908471 0.0167188
0.262717 -0.964743 -0.0158365
0.1018 -0.994484 -0.025264
-0.0607645 -0.998043 -0.014727
-0.219942 -0.975429 0.0127843
-0.36961 -0.927598 0.0543249
-0.50336 -0.857442 0.10687
-0.616035 -0.769738 0.167345
-0.704914 -0.670024 0.232734
-0.769853 -0.56327 0.300088
-0.81263 -0.453188 0.366406
-0.836136 -0.342355 0.428566
-0.843864 -0.232725 0.48346
-0.839622 -0.126051 0.528342
-0.827305 -0.0240314 0.561239
-0.810584 0.071781 0.581206
-0.792588 0.160125 0.588357
-0.775655 0.24013 0.583692
-0.761262 0.311326 0.56882
-0.750098 0.373599 0.545689
-0.742248 0.427139 0.516352
-0.737402 0.472374 0.482806
-0.735058 0.509905 0.446863
-0.734682 0.540447 0.410073
-0.735818 0.564755 0.373661
-0.738137 0.583584 0.338503
-0.741418 0.597667 0.305114
-0.745492 0.607742 0.273665
-0.750148 0.614605 0.244005
-0.755031 0.619193 0.215703
-0.759535 0.622677 0.188096
-0.762727 0.626524 0.160359
-0.763311 0.632484 0.131609
-0.759671 0.642401 0.101097
-0.75005 0.657825 0.0684856
-0.732865 0.679516 0.0341476
-0.707107 0.707107 -0.000674805
-0.672916 0.738966 -0.0333646
-0.633295 0.771788 -0.0572796
-0.599333 0.798359 -0.0585161
-0.506974 0.498134 0.703449
-0.304335 0.564663 0.767161
-0.0358725 0.558965 0.828415
0.260952 0.475135 0.840328
0.532967 0.314738 0.785421
0.732254 0.101456 0.673432
0.83706 -0.129644 0.531529
0.853231 -0.348534 0.38797
0.801133 -0.538162 0.261854
0.702567 -0.692892 0.162174
0.574518 -0.813415 0.0910209
0.428226 -0.902458 0.0468197
0.270627 -0.96232 0.0264891
0.106501 -0.993956 0.0266425
-0.0594853 -0.997255 0.0440838
-0.221481 -0.972208 0.0758739
-0.372454 -0.920357 0.119248
-0.505538 -0.845569 0.171593
-0.615796 -0.753438 0.230491
-0.701153 -0.649731 0.293658
-0.762069 -0.539071 0.358684
-0.800617 -0.424625 0.422737
-0.819728 -0.30864 0.482481
-0.822869 -0.193162 0.534392
-0.813947 -0.0804301 0.575345
-0.79711 0.027182 0.603222
-0.776371 0.127485 0.617249
-0.755153 0.218794 0.617959
-0.735956 0.300078 0.606895
-0.72026 0.370932 0.586204
-0.708644 0.431468 0.558264
-0.701036 0.482172 0.525413
-0.696981 0.52379 0.489756
-0.695878 0.557215 0.453062
-0.697145 0.5834 0.416693
-0.700309 0.603284 0.381596
-0.705023 0.617761 0.348302
-0.711014 0.627687 0.316968
-0.718002 0.633928 0.287417
-0.725596 0.637444 0.259183
-0.733186 0.639385 0.231569
-0.739857 0.64118 0.203716
-0.744336 0.644553 0.174686
-0.745012 0.651406 0.143623
-0.740061 0.663487 0.109977
-0.727718 0.681896 0.0737816
-0.706653 0.706653 0.0358194
-0.676374 0.736556 -0.00202071
-0.638275 0.769027 -0.034673
-0.598693 0.79924 -0.0527416
-0.498042 0.584431 0.640621
-0.27163 0.636168 0.722155
0.0116846 0.624292 0.781103
0.314738 0.532967 0.785421
0.584252 0.363836 0.725447
0.775222 0.142255 0.615463
0.870217 -0.0958834 0.483248
0.878215 -0.320826 0.354697
0.820458 -0.516122 0.2459
0.718141 -0.6764 0.163572
0.587165 -0.802175 0.108411
0.437803 -0.895673 0.0780947
0.27648 -0.958526 0.0691887
0.108109 -0.991063 0.0781442
-0.0618675 -0.992892 0.101677
-0.226493 -0.96435 0.136858
-0.37789 -0.907952 0.181169
-0.50911 -0.828682 0.23258
-0.615857 -0.732741 0.289502
-0.696907 -0.625713 0.350435
-0.753283 -0.511518 0.413418
-0.787188 -0.392629 0.475581
-0.801427 -0.27103 0.533157
-0.79938 -0.149092 0.582034
-0.78509 -0.029835 0.618663
-0.763086 0.0834421 0.640888
-0.737847 0.187803 0.648315
-0.713165 0.281175 0.642134
-0.691703 0.362505 0.624609
-0.674903 0.431631 0.598498
-0.663192 0.489038 0.566585
-0.656315 0.535622 0.531376
-0.653667 0.572505 0.494932
-0.654547 0.600893 0.458798
-0.658315 0.62197 0.423999
-0.664443 0.636847 0.391076
-0.6725 0.646554 0.360154
-0.68208 0.652075 0.331006
-0.692705 0.65443 0.30312
-0.703719 0.654779 0.275761
-0.714194 0.654528 0.248033
-0.722864 0.655379 0.218966
-0.728128 0.65926 0.187632
-0.728128 0.66807 0.153337
-0.720974 0.683206 0.115867
-0.705079 0.705079 0.0756809
-0.679516 0.732865 0.0341476
-0.644647 0.764463 -0.00513661
-0.604092 0.796179 -0.0342438
-0.569493 0.820936 -0.0417453
-0.655919 0.55553 0.511034
-0.479442 0.650239 0.589343
-0.236494 0.697935 0.675986
0.0577495 0.682013 0.729056
0.363836 0.584252 0.725447
0.628864 0.407867 0.661948
0.811275 0.179856 0.556313
0.897794 -0.0636053 0.435799
0.899601 -0.293493 0.323386
0.837879 -0.493988 0.23224
0.732698 -0.659722 0.167093
0.59878 -0.790697 0.127514
0.445638 -0.888356 0.110592
0.279593 -0.953496 0.112573
0.106192 -0.985853 0.129678
-0.067923 -0.985027 0.158456
-0.234552 -0.952137 0.196012
-0.385231 -0.890999 0.240247
-0.513388 -0.807689 0.289951
-0.615718 -0.708657 0.344524
-0.691919 -0.598865 0.403247
-0.743433 -0.481237 0.464455
-0.772378 -0.357474 0.525019
-0.781271 -0.22944 0.580493
-0.773358 -0.10014 0.626011
-0.752919 0.0262488 0.65759
-0.725036 0.145214 0.673228
-0.694816 0.252982 0.673224
-0.666489 0.347205 0.659728
-0.642865 0.427035 0.635897
-0.625301 0.492786 0.605112
-0.614025 0.5455 0.570441
-0.608581 0.586591 0.53436
-0.608205 0.617599 0.498656
-0.612076 0.640039 0.46445
-0.619443 0.65531 0.432271
-0.629648 0.664681 0.402173
-0.642078 0.66931 0.373845
-0.656097 0.670326 0.346699
-0.670938 0.668937 0.319945
-0.685612 0.666551 0.292655
-0.698828 0.664855 0.263831
-0.708981 0.665796 0.23251
-0.714203 0.671376 0.197912
-0.712526 0.683242 0.159646
-0.702172 0.702172 0.117931
-0.681896 0.727718 0.0737816
-0.65139 0.758161 0.029728
-0.61247 0.790451 -0.00821102
-0.571904 0.819734 -0.0310306
-0.648821 0.616643 0.445851
-0.456425 0.704628 0.5433
-0.200483 0.751521 0.628509
0.101456 0.732254 0.673432
0.407867 0.628864 0.661948
0.666895 0.446705 0.596411
0.840903 0.214156 0.49701
0.920404 -0.0329582 0.389576
0.917834 -0.266765 0.293968
0.853517 -0.472044 0.220642
0.746034 -0.64315 0.1726
0.608912 -0.779225 0.148436
0.451174 -0.880631 0.144676
0.279488 -0.9472 0.157157
0.100542 -0.978192 0.181744
-0.077484 -0.973585 0.214773
-0.245196 -0.93574 0.253515
-0.393945 -0.869978 0.296557
-0.518005 -0.783257 0.343771
-0.615289 -0.681824 0.395646
-0.686355 -0.569602 0.452184
-0.73285 -0.448278 0.511838
-0.75657 -0.318756 0.570961
-0.759574 -0.182984 0.624151
-0.744955 -0.0450356 0.665592
-0.717393 0.0892309 0.690931
-0.682784 0.213725 0.698661
-0.647063 0.323813 0.690257
-0.614966 0.417136 0.66919
-0.589417 0.493424 0.639625
-0.571619 0.553792 0.605447
-0.561558 0.600037 0.569743
-0.558547 0.634173 0.534649
-0.561628 0.65816 0.501397
-0.569794 0.67379 0.470469
-0.582084 0.682646 0.441783
-0.597585 0.686126 0.414877
-0.615395 0.685521 0.389036
-0.634545 0.682132 0.363386
-0.653904 0.677401 0.336954
-0.672106 0.673023 0.308728
-0.687512 0.670961 0.277738
-0.698245 0.673294 0.243166
-0.702303 0.681867 0.204519
-0.697786 0.697786 0.161833
-0.683206 0.720974 0.115867
-0.657825 0.75005 0.0684856
-0.62233 0.782388 0.0239763
-0.580742 0.814032 -0.00954686
-0.544639 0.83837 -0.0224365
-0.779594 0.546886 0.305201
-0.63551 0.661454 0.398254
-0.430901 0.750702 0.500771
-0.164646 0.797696 0.580148
0.142255 0.775222 0.615463
0.446705 0.666895 0.596411
0.698634 0.480428 0.530188
0.864685 0.245181 0.438413
0.938627 -0.00403689 0.34491
0.933269 -0.240837 0.26647
0.867441 -0.450534 0.211105
0.757949 -0.626912 0.180265
0.617173 -0.767889 0.171594
0.453958 -0.872456 0.180949
0.275823 -0.939404 0.203574
0.0910831 -0.967758 0.234838
-0.0903332 -0.958358 0.270907
-0.258068 -0.91522 0.309471
-0.403792 -0.845195 0.350138
-0.523019 -0.755745 0.394081
-0.614958 -0.652422 0.442914
-0.68087 -0.53773 0.497255
-0.722345 -0.411905 0.555474
-0.740581 -0.27504 0.613101
-0.736974 -0.129489 0.663402
-0.714479 0.0188993 0.699402
-0.678467 0.161778 0.716596
-0.636055 0.291075 0.714639
-0.594269 0.401501 0.69688
-0.558396 0.491274 0.668463
-0.531381 0.561298 0.634491
-0.514181 0.613863 0.598991
-0.506476 0.65168 0.564619
-0.507295 0.677365 0.532755
-0.515394 0.693242 0.503771
-0.529443 0.701307 0.477345
-0.548118 0.703268 0.452747
-0.570116 0.700635 0.429045
-0.594126 0.694844 0.405224
-0.618767 0.687414 0.380249
-0.642509 0.680076 0.3531
-0.663625 0.674822 0.322827
-0.680212 0.673799 0.28863
-0.690262 0.679005 0.249981
-0.691822 0.691822 0.206799
-0.683242 0.712526 0.159646
-0.663487 0.740061 0.109977
-0.632548 0.772127 0.060856
-0.592617 0.805269 0.0186414
-0.550623 0.834715 -0.00808857
-0.772169 0.584176 0.249987
-0.619119 0.697862 0.360111
-0.403969 0.79019 0.460878
-0.129644 0.83706 0.531529
0.179856 0.811275 0.556313
0.480428 0.698634 0.530188
0.724529 0.509277 0.46443
0.883245 0.273039 0.381219
0.952994 0.023108 0.302107
0.946202 -0.21586 0.24105
0.87969 -0.429632 0.203869
0.76826 -0.611122 0.190543
0.62322 -0.756653 0.19767
0.453606 -0.863572 0.220194
0.268331 -0.92964 0.252522
0.0777877 -0.954032 0.289433
-0.106309 -0.93899 0.327102
-0.27305 -0.890476 0.363999
-0.414951 -0.816668 0.401086
-0.529024 -0.725033 0.440976
-0.61572 -0.619936 0.486383
-0.676766 -0.502087 0.53842
-0.713377 -0.370014 0.595133
-0.725769 -0.223037 0.650779
-0.714396 -0.0645753 0.696756
-0.682197 0.0964448 0.72478
-0.635831 0.248024 0.730892
-0.584287 0.379956 0.717106
-0.535956 0.487142 0.689525
-0.496581 0.569475 0.655062
-0.468947 0.629776 0.61925
-0.453633 0.671812 0.585564
-0.449926 0.699205 0.555589
-0.456445 0.715047 0.529496
-0.47148 0.72188 0.506553
-0.493185 0.721793 0.485576
-0.519689 0.716559 0.465259
-0.549161 0.707796 0.44435
-0.579795 0.697137 0.421709
-0.609766 0.686383 0.396313
-0.637175 0.677584 0.367271
-0.660048 0.672962 0.333855
-0.67638 0.674642 0.295581
-0.684226 0.684226 0.252327
-0.681867 0.702303 0.204519
-0.66807 0.728128 0.153337
-0.642401 0.759671 0.101097
-0.605906 0.793806 0.0524384
-0.562897 0.826382 0.0154708
-0.524654 0.851314 -0.00139794
-0.870246 0.480999 0.106354
-0.762335 0.61035 0.215217
-0.600675 0.728768 0.328766
-0.376359 0.824107 0.423322
-0.0958834 0.870217 0.483248
0.214156 0.840903 0.49701
0.509277 0.724529 0.46443
0.74513 0.533608 0.400056
0.897214 0.297901 0.325979
0.963989 0.0484812 0.261484
0.956893 -0.191908 0.218009
0.890301 -0.409394 0.199399
0.776807 -0.595729 0.204149
0.626745 -0.745255 0.227563
0.449778 -0.853439 0.26333
0.256796 -0.917161 0.304747
0.0606233 -0.936265 0.346025
-0.125413 -0.914914 0.383671
-0.290405 -0.861088 0.417363
-0.428171 -0.783876 0.449675
-0.53733 -0.690171 0.484707
-0.619393 -0.582627 0.526211
-0.676242 -0.459707 0.575644
-0.708234 -0.317922 0.630341
-0.713988 -0.156144 0.682525
-0.692674 0.0195645 0.720985
-0.64777 0.194884 0.736488
-0.588463 0.35298 0.727404
-0.526471 0.482521 0.700001
-0.47155 0.580632 0.663707
-0.429524 0.650389 0.626501
-0.402726 0.697091 0.593191
-0.39121 0.725929 0.565669
-0.393723 0.741152 0.54376
-0.408262 0.746044 0.526061
-0.432398 0.743148 0.51065
-0.463519 0.734531 0.495594
-0.499033 0.722013 0.479232
-0.536474 0.707373 0.460238
-0.57352 0.692526 0.437587
-0.607959 0.679619 0.410492
-0.637673 0.670972 0.378377
-0.660645 0.668836 0.340891
-0.674986 0.674986 0.297971
-0.679005 0.690262 0.249981
-0.671376 0.714203 0.197912
-0.651406 0.745012 0.143623
-0.619442 0.779807 0.090515
-0.578021 0.814775 0.0450917
-0.534159 0.845241 0.0155875
-0.863269 0.49984 0.070193
-0.750944 0.631842 0.191984
-0.580762 0.755748 0.30259
-0.348534 0.853231 0.38797