# vtk DataFile Version 2.0
tmp/0.000.00-10.000.000.001.0074.vtk
ASCII
DATASET UNSTRUCTURED_GRID
POINTS 5100 float
0.5 0 0
1.5 0 0
2.5 0 0
3.5 0 0
4.5 0 0
5.5 0 0
6.5 0 0
7.5 0 0
8.5 0 0
9.5 0 0
10.5 0 0
11.5 0 0
12.5 0 0
13.5 0 0
14.5 0 0
15.5 0 0
16.5 0 0
17.5 0 0
18.5 0 0
19.5 0 0
20.5 0 0
21.5 0 0
22.5 0 0
23.5 0 0
24.5 0 0
25.5 0 0
26.5 0 0
27.5 0 0
28.5 0 0
29.5 0 0
30.5 0 0
31.5 0 0
32.5 0 0
33.5 0 0
34.5 0 0
35.5 0 0
36.5 0 0
37.5 0 0
38.5 0 0
39.5 0 0
40.5 0 0
41.5 0 0
42.5 0 0
43.5 0 0
44.5 0 0
45.5 0 0
46.5 0 0
47.5 0 0
48.5 0 0
49.5 0 0
0 0.5 0
1 0.5 0
2 0.5 0
3 0.5 0
4 0.5 0
5 0.5 0
6 0.5 0
7 0.5 0
8 0.5 0
9 0.5 0
10 0.5 0
11 0.5 0
12 0.5 0
13 0.5 0
14 0.5 0
15 0.5 0
16 0.5 0
17 0.5 0
18 0.5 0
19 0.5 0
20 0.5 0
21 0.5 0
22 0.5 0
23 0.5 0
24 0.5 0
25 0.5 0
26 0.5 0
27 0.5 0
28 0.5 0
29 0.5 0
30 0.5 0
31 0.5 0
32 0.5 0
33 0.5 0
34 0.5 0
35 0.5 0
36 0.5 0
37 0.5 0
38 0.5 0
39 0.5 0
40 0.5 0
41 0.5 0
42 0.5 0
43 0.5 0
44 0.5 0
45 0.5 0
46 0.5 0
47 0.5 0
48 0.5 0
49 0.5 0
50 0.5 0
0.5 1 0
1.5 1 0
2.5 1 0
3.5 1 0
4.5 1 0
5.5 1 0
6.5 1 0
7.5 1 0
8.5 1 0
9.5 1 0
10.5 1 0
11.5 1 0
12.5 1 0
13.5 1 0
14.5 1 0
15.5 1 0
16.5 1 0
17.5 1 0
18.5 1 0
19.5 1 0
20.5 1 0
21.5 1 0
22.5 1 0
23.5 1 0
24.5 1 0
25.5 1 0
26.5 1 0
27.5 1 0
28.5 1 0
29.5 1 0
30.5 1 0
31.5 1 0
32.5 1 0
33.5 1 0
34.5 1 0
35.5 1 0
36.5 1 0
37.5 1 0
38.5 1 0
39.5 1 0
40.5 1 0
41.5 1 0
42.5 1 0
43.5 1 0
44.5 1 0
45.5 1 0
46.5 1 0
47.5 1 0
48.5 1 0
49.5 1 0
0 1.5 0
1 1.5 0
2 1.5 0
3 1.5 0
4 1.5 0
5 1.5 0
6 1.5 0
7 1.5 0
8 1.5 0
9 1.5 0
10 1.5 0
11 1.5 0
12 1.5 0
13 1.5 0
14 1.5 0
15 1.5 0
16 1.5 0
17 1.5 0
18 1.5 0
19 1.5 0
20 1.5 0
21 1.5 0
22 1.5 0
23 1.5 0
24 1.5 0
25 1.5 0
26 1.5 0
27 1.5 0
28 1.5 0
29 1.5 0
30 1.5 0
31 1.5 0
32 1.5 0
33 1.5 0
34 1.5 0
35 1.5 0
36 1.5 0
37 1.5 0
38 1.5 0
39 1.5 0
40 1.5 0
41 1.5 0
42 1.5 0
43 1.5 0
44 1.5 0
45 1.5 0
46 1.5 0
47 1.5 0
48 1.5 0
49 1.5 0
50 1.5 0
0.5 2 0
1.5 2 0
2.5 2 0
3.5 2 0
4.5 2 0
5.5 2 0
6.5 2 0
7.5 2 0
8.5 2 0
9.5 2 0
10.5 2 0
11.5 2 0
12.5 2 0
13.5 2 0
14.5 2 0
15.5 2 0
16.5 2 0
17.5 2 0
18.5 2 0
19.5 2 0
20.5 2 0
21.5 2 0
22.5 2 0
23.5 2 0
24.5 2 0
25.5 2 0
26.5 2 0
27.5 2 0
28.5 2 0
29.5 2 0
30.5 2 0
31.5 2 0
32.5 2 0
33.5 2 0
34.5 2 0
35.5 2 0
36.5 2 0
37.5 2 0
38.5 2 0
39.5 2 0
40.5 2 0
41.5 2 0
42.5 2 0
43.5 2 0
44.5 2 0
45.5 2 0
46.5 2 0
47.5 2 0
48.5 2 0
49.5 2 0
0 2.5 0
1 2.5 0
2 2.5 0
3 2.5 0
4 2.5 0
5 2.5 0
6 2.5 0
7 2.5 0
8 2.5 0
9 2.5 0
10 2.5 0
11 2.5 0
12 2.5 0
13 2.5 0
14 2.5 0
15 2.5 0
16 2.5 0
17 2.5 0
18 2.5 0
19 2.5 0
20 2.5 0
21 2.5 0
22 2.5 0
23 2.5 0
24 2.5 0
25 2.5 0
26 2.5 0
27 2.5 0
28 2.5 0
29 2.5 0
30 2.5 0
31 2.5 0
32 2.5 0
33 2.5 0
34 2.5 0
35 2.5 0
36 2.5 0
37 2.5 0
38 2.5 0
39 2.5 0
40 2.5 0
41 2.5 0
42 2.5 0
43 2.5 0
44 2.5 0
45 2.5 0
46 2.5 0
47 2.5 0
48 2.5 0
49 2.5 0
50 2.5 0
0.5 3 0
1.5 3 0
2.5 3 0
3.5 3 0
4.5 3 0
5.5 3 0
6.5 3 0
7.5 3 0
8.5 3 0
9.5 3 0
10.5 3 0
11.5 3 0
12.5 3 0
13.5 3 0
14.5 3 0
15.5 3 0
16.5 3 0
17.5 3 0
18.5 3 0
19.5 3 0
20.5 3 0
21.5 3 0
22.5 3 0
23.5 3 0
24.5 3 0
25.5 3 0
26.5 3 0
27.5 3 0
28.5 3 0
29.5 3 0
30.5 3 0
31.5 3 0
32.5 3 0
33.5 3 0
34.5 3 0
35.5 3 0
36.5 3 0
37.5 3 0
38.5 3 0
39.5 3 0
40.5 3 0
41.5 3 0
42.5 3 0
43.5 3 0
44.5 3 0
45.5 3 0
46.5 3 0
47.5 3 0
48.5 3 0
49.5 3 0
0 3.5 0
1 3.5 0
2 3.5 0
3 3.5 0
4 3.5 0
5 3.5 0
6 3.5 0
7 3.5 0
8 3.5 0
9 3.5 0
10 3.5 0
11 3.5 0
12 3.5 0
13 3.5 0
14 3.5 0
15 3.5 0
16 3.5 0
17 3.5 0
18 3.5 0
19 3.5 0
20 3.5 0
21 3.5 0
22 3.5 0
23 3.5 0
24 3.5 0
25 3.5 0
26 3.5 0
27 3.5 0
28 3.5 0
29 3.5 0
30 3.5 0
31 3.5 0
32 3.5 0
33 3.5 0
34 3.5 0
35 3.5 0
36 3.5 0
37 3.5 0
38 3.5 0
39 3.5 0
40 3.5 0
41 3.5 0
42 3.5 0
43 3.5 0
44 3.5 0
45 3.5 0
46 3.5 0
47 3.5 0
48 3.5 0
49 3.5 0
50 3.5 0
0.5 4 0
1.5 4 0
2.5 4 0
3.5 4 0
4.5 4 0
5.5 4 0
6.5 4 0
7.5 4 0
8.5 4 0
9.5 4 0
10.5 4 0
11.5 4 0
12.5 4 0
13.5 4 0
14.5 4 0
15.5 4 0
16.5 4 0
17.5 4 0
18.5 4 0
19.5 4 0
20.5 4 0
21.5 4 0
22.5 4 0
23.5 4 0
24.5 4 0
25.5 4 0
26.5 4 0
27.5 4 0
28.5 4 0
29.5 4 0
30.5 4 0
31.5 4 0
32.5 4 0
33.5 4 0
34.5 4 0
35.5 4 0
36.5 4 0
37.5 4 0
38.5 4 0
39.5 4 0
40.5 4 0
41.5 4 0
42.5 4 0
43.5 4 0
44.5 4 0
45.5 4 0
46.5 4 0
47.5 4 0
48.5 4 0
49.5 4 0
0 4.5 0
1 4.5 0
2 4.5 0
3 4.5 0
4 4.5 0
5 4.5 0
6 4.5 0
7 4.5 0
8 4.5 0
9 4.5 0
10 4.5 0
11 4.5 0
12 4.5 0
13 4.5 0
14 4.5 0
15 4.5 0
16 4.5 0
17 4.5 0
18 4.5 0
19 4.5 0
20 4.5 0
21 4.5 0
22 4.5 0
23 4.5 0
24 4.5 0
25 4.5 0
26 4.5 0
27 4.5 0
28 4.5 0
29 4.5 0
30 4.5 0
31 4.5 0
32 4.5 0
33 4.5 0
34 4.5 0
35 4.5 0
36 4.5 0
37 4.5 0
38 4.5 0
39 4.5 0
40 4.5 0
41 4.5 0
42 4.5 0
43 4.5 0
44 4.5 0
45 4.5 0
46 4.5 0
47 4.5 0
48 4.5 0
49 4.5 0
50 4.5 0
0.5 5 0
1.5 5 0
2.5 5 0
3.5 5 0
4.5 5 0
5.5 5 0
6.5 5 0
7.5 5 0
8.5 5 0
9.5 5 0
10.5 5 0
11.5 5 0
12.5 5 0
13.5 5 0
14.5 5 0
15.5 5 0
16.5 5 0
17.5 5 0
18.5 5 0
19.5 5 0
20.5 5 0
21.5 5 0
22.5 5 0
23.5 5 0
24.5 5 0
25.5 5 0
26.5 5 0
27.5 5 0
28.5 5 0
29.5 5 0
30.5 5 0
31.5 5 0
32.5 5 0
33.5 5 0
34.5 5 0
35.5 5 0
36.5 5 0
37.5 5 0
38.5 5 0
39.5 5 0
40.5 5 0
41.5 5 0
42.5 5 0
43.5 5 0
44.5 5 0
45.5 5 0
46.5 5 0
47.5 5 0
48.5 5 0
49.5 5 0
0 5.5 0
1 5.5 0
2 5.5 0
3 5.5 0
4 5.5 0
5 5.5 0
6 5.5 0
7 5.5 0
8 5.5 0
9 5.5 0
10 5.5 0
11 5.5 0
12 5.5 0
13 5.5 0
14 5.5 0
15 5.5 0
16 5.5 0
17 5.5 0
18 5.5 0
19 5.5 0
20 5.5 0
21 5.5 0
22 5.5 0
23 5.5 0
24 5.5 0
25 5.5 0
26 5.5 0
27 5.5 0
28 5.5 0
29 5.5 0
30 5.5 0
31 5.5 0
32 5.5 0
33 5.5 0
34 5.5 0
35 5.5 0
36 5.5 0
37 5.5 0
38 5.5 0
39 5.5 0
40 5.5 0
41 5.5 0
42 5.5 0
43 5.5 0
44 5.5 0
45 5.5 0
46 5.5 0
47 5.5 0
48 5.5 0
49 5.5 0
50 5.5 0
0.5 6 0
1.5 6 0
2.5 6 0
3.5 6 0
4.5 6 0
5.5 6 0
6.5 6 0
7.5 6 0
8.5 6 0
9.5 6 0
10.5 6 0
11.5 6 0
12.5 6 0
13.5 6 0
14.5 6 0
15.5 6 0
16.5 6 0
17.5 6 0
18.5 6 0
19.5 6 0
20.5 6 0
21.5 6 0
22.5 6 0
23.5 6 0
24.5 6 0
25.5 6 0
26.5 6 0
27.5 6 0
28.5 6 0
29.5 6 0
30.5 6 0
31.5 6 0
32.5 6 0
33.5 6 0
34.5 6 0
35.5 6 0
36.5 6 0
37.5 6 0
38.5 6 0
39.5 6 0
40.5 6 0
41.5 6 0
42.5 6 0
43.5 6 0
44.5 6 0
45.5 6 0
46.5 6 0
47.5 6 0
48.5 6 0
49.5 6 0
0 6.5 0
1 6.5 0
2 6.5 0
3 6.5 0
4 6.5 0
5 6.5 0
6 6.5 0
7 6.5 0
8 6.5 0
9 6.5 0
10 6.5 0
11 6.5 0
12 6.5 0
13 6.5 0
14 6.5 0
15 6.5 0
16 6.5 0
17 6.5 0
18 6.5 0
19 6.5 0
20 6.5 0
21 6.5 0
22 6.5 0
23 6.5 0
24 6.5 0
25 6.5 0
26 6.5 0
27 6.5 0
28 6.5 0
29 6.5 0
30 6.5 0
31 6.5 0
32 6.5 0
33 6.5 0
34 6.5 0
35 6.5 0
36 6.5 0
37 6.5 0
38 6.5 0
39 6.5 0
40 6.5 0
41 6.5 0
42 6.5 0
43 6.5 0
44 6.5 0
45 6.5 0
46 6.5 0
47 6.5 0
48 6.5 0
49 6.5 0
50 6.5 0
0.5 7 0
1.5 7 0
2.5 7 0
3.5 7 0
4.5 7 0
5.5 7 0
6.5 7 0
7.5 7 0
8.5 7 0
9.5 7 0
10.5 7 0
11.5 7 0
12.5 7 0
13.5 7 0
14.5 7 0
15.5 7 0
16.5 7 0
17.5 7 0
18.5 7 0
19.5 7 0
20.5 7 0
21.5 7 0
22.5 7 0
23.5 7 0
24.5 7 0
25.5 7 0
26.5 7 0
27.5 7 0
28.5 7 0
29.5 7 0
30.5 7 0
31.5 7 0
32.5 7 0
33.5 7 0
34.5 7 0
35.5 7 0
36.5 7 0
37.5 7 0
38.5 7 0
39.5 7 0
40.5 7 0
41.5 7 0
42.5 7 0
43.5 7 0
44.5 7 0
45.5 7 0
46.5 7 0
47.5 7 0
48.5 7 0
49.5 7 0
0 7.5 0
1 7.5 0
2 7.5 0
3 7.5 0
4 7.5 0
5 7.5 0
6 7.5 0
7 7.5 0
8 7.5 0
9 7.5 0
10 7.5 0
11 7.5 0
12 7.5 0
13 7.5 0
14 7.5 0
15 7.5 0
16 7.5 0
17 7.5 0
18 7.5 0
19 7.5 0
20 7.5 0
21 7.5 0
22 7.5 0
23 7.5 0
24 7.5 0
25 7.5 0
26 7.5 0
27 7.5 0
28 7.5 0
29 7.5 0
30 7.5 0
31 7.5 0
32 7.5 0
33 7.5 0
34 7.5 0
35 7.5 0
36 7.5 0
37 7.5 0
38 7.5 0
39 7.5 0
40 7.5 0
41 7.5 0
42 7.5 0
43 7.5 0
44 7.5 0
45 7.5 0
46 7.5 0
47 7.5 0
48 7.5 0
49 7.5 0
50 7.5 0
0.5 8 0
1.5 8 0
2.5 8 0
3.5 8 0
4.5 8 0
5.5 8 0
6.5 8 0
7.5 8 0
8.5 8 0
9.5 8 0
10.5 8 0
11.5 8 0
12.5 8 0
13.5 8 0
14.5 8 0
15.5 8 0
16.5 8 0
17.5 8 0
18.5 8 0
19.5 8 0
20.5 8 0
21.5 8 0
22.5 8 0
23.5 8 0
24.5 8 0
25.5 8 0
26.5 8 0
27.5 8 0
28.5 8 0
29.5 8 0
30.5 8 0
31.5 8 0
32.5 8 0
33.5 8 0
34.5 8 0
35.5 8 0
36.5 8 0
37.5 8 0
38.5 8 0
39.5 8 0
40.5 8 0
41.5 8 0
42.5 8 0
43.5 8 0
44.5 8 0
45.5 8 0
46.5 8 0
47.5 8 0
48.5 8 0
49.5 8 0
0 8.5 0
1 8.5 0
2 8.5 0
3 8.5 0
4 8.5 0
5 8.5 0
6 8.5 0
7 8.5 0
8 8.5 0
9 8.5 0
10 8.5 0
11 8.5 0
12 8.5 0
13 8.5 0
14 8.5 0
15 8.5 0
16 8.5 0
17 8.5 0
18 8.5 0
19 8.5 0
20 8.5 0
21 8.5 0
22 8.5 0
23 8.5 0
24 8.5 0
25 8.5 0
26 8.5 0
27 8.5 0
28 8.5 0
29 8.5 0
30 8.5 0
31 8.5 0
32 8.5 0
33 8.5 0
34 8.5 0
35 8.5 0
36 8.5 0
37 8.5 0
38 8.5 0
39 8.5 0
40 8.5 0
41 8.5 0
42 8.5 0
43 8.5 0
44 8.5 0
45 8.5 0
46 8.5 0
47 8.5 0
48 8.5 0
49 8.5 0
50 8.5 0
0.5 9 0
1.5 9 0
2.5 9 0
3.5 9 0
4.5 9 0
5.5 9 0
6.5 9 0
7.5 9 0
8.5 9 0
9.5 9 0
10.5 9 0
11.5 9 0
12.5 9 0
13.5 9 0
14.5 9 0
15.5 9 0
16.5 9 0
17.5 9 0
18.5 9 0
19.5 9 0
20.5 9 0
21.5 9 0
22.5 9 0
23.5 9 0
24.5 9 0
25.5 9 0
26.5 9 0
27.5 9 0
28.5 9 0
29.5 9 0
30.5 9 0
31.5 9 0
32.5 9 0
33.5 9 0
34.5 9 0
35.5 9 0
36.5 9 0
37.5 9 0
38.5 9 0
39.5 9 0
40.5 9 0
41.5 9 0
42.5 9 0
43.5 9 0
44.5 9 0
45.5 9 0
46.5 9 0
47.5 9 0
48.5 9 0
49.5 9 0
0 9.5 0
1 9.5 0
2 9.5 0
3 9.5 0
4 9.5 0
5 9.5 0
6 9.5 0
7 9.5 0
8 9.5 0
9 9.5 0
10 9.5 0
11 9.5 0
12 9.5 0
13 9.5 0
14 9.5 0
15 9.5 0
16 9.5 0
17 9.5 0
18 9.5 0
19 9.5 0
20 9.5 0
21 9.5 0
22 9.5 0
23 9.5 0
24 9.5 0
25 9.5 0
26 9.5 0
27 9.5 0
28 9.5 0
29 9.5 0
30 9.5 0
31 9.5 0
32 9.5 0
33 9.5 0
34 9.5 0
35 9.5 0
36 9.5 0
37 9.5 0
38 9.5 0
39 9.5 0
40 9.5 0
41 9.5 0
42 9.5 0
43 9.5 0
44 9.5 0
45 9.5 0
46 9.5 0
47 9.5 0
48 9.5 0
49 9.5 0
50 9.5 0
0.5 10 0
1.5 10 0
2.5 10 0
3.5 10 0
4.5 10 0
5.5 10 0
6.5 10 0
7.5 10 0
8.5 10 0
9.5 10 0
10.5 10 0
11.5 10 0
12.5 10 0
13.5 10 0
14.5 10 0
15.5 10 0
16.5 10 0
17.5 10 0
18.5 10 0
19.5 10 0
20.5 10 0
21.5 10 0
22.5 10 0
23.5 10 0
24.5 10 0
25.5 10 0
26.5 10 0
27.5 10 0
28.5 10 0
29.5 10 0
30.5 10 0
31.5 10 0
32.5 10 0
33.5 10 0
34.5 10 0
35.5 10 0
36.5 10 0
37.5 10 0
38.5 10 0
39.5 10 0
40.5 10 0
41.5 10 0
42.5 10 0
43.5 10 0
44.5 10 0
45.5 10 0
46.5 10 0
47.5 10 0
48.5 10 0
49.5 10 0
0 10.5 0
1 10.5 0
2 10.5 0
3 10.5 0
4 10.5 0
5 10.5 0
6 10.5 0
7 10.5 0
8 10.5 0
9 10.5 0
10 10.5 0
11 10.5 0
12 10.5 0
13 10.5 0
14 10.5 0
15 10.5 0
16 10.5 0
17 10.5 0
18 10.5 0
19 10.5 0
20 10.5 0
21 10.5 0
22 10.5 0
23 10.5 0
24 10.5 0
25 10.5 0
26 10.5 0
27 10.5 0
28 10.5 0
29 10.5 0
30 10.5 0
31 10.5 0
32 10.5 0
33 10.5 0
34 10.5 0
35 10.5 0
36 10.5 0
37 10.5 0
38 10.5 0
39 10.5 0
40 10.5 0
41 10.5 0
42 10.5 0
43 10.5 0
44 10.5 0
45 10.5 0
46 10.5 0
47 10.5 0
48 10.5 0
49 10.5 0
50 10.5 0
[...]
POINT_DATA 5100
VECTORS velocity float
0.487721 0.429464 0.760059
0.404592 0.284016 0.869276
0.349378 0.160057 0.92321
0.358555 0.0194917 0.933305
0.403708 -0.155852 0.901516
0.450238 -0.348474 0.822102
0.474165 -0.528292 0.704326
0.468982 -0.675779 0.568664
0.439466 -0.787168 0.432709
0.393027 -0.867121 0.305992
0.335603 -0.922199 0.192146
0.270845 -0.958227 0.0918919
0.200388 -0.979705 0.00486577
0.124374 -0.989803 -0.0694275
0.0421018 -0.990481 -0.131052
-0.0471673 -0.982658 -0.179325
-0.143304 -0.966526 -0.212819
-0.244575 -0.942007 -0.229794
-0.347461 -0.909301 -0.229002
-0.44728 -0.869263 -0.210529
-0.539389 -0.823416 -0.176197
-0.62035 -0.773594 -0.129298
-0.688508 -0.721456 -0.0738745
-0.743889 -0.668157 -0.0139553
-0.787702 -0.614266 0.0469326
-0.821782 -0.559865 0.105946
-0.848155 -0.504724 0.160895
-0.868753 -0.448461 0.210121
-0.885254 -0.390683 0.252375
-0.898982 -0.33109 0.286723
-0.910866 -0.269559 0.312507
-0.921417 -0.206198 0.329352
-0.930758 -0.141383 0.337194
-0.938694 -0.0757629 0.336323
-0.944833 -0.0102181 0.327392
-0.94873 0.0542101 0.311404
-0.950032 0.116424 0.289628
-0.948583 0.175385 0.263495
-0.94447 0.230231 0.234457
-0.938 0.280371 0.203835
-0.929614 0.32557 0.172689
-0.919765 0.366004 0.141677
-0.908766 0.402288 0.110944
-0.896642 0.435465 0.0800226
-0.882991 0.466952 0.0477815
-0.866842 0.49843 0.0123812
-0.846467 0.53166 -0.0288406
-0.819052 0.568137 -0.0798374
-0.77974 0.60848 -0.147503
-0.718442 0.651264 -0.244328
0.429464 0.487721 0.760059
0.336058 0.289854 0.896131
0.327153 0.155085 0.932159
0.376997 0.0134836 0.926116
0.456868 -0.155025 0.875921
0.529851 -0.340026 0.776943
0.569406 -0.515375 0.640441
0.56867 -0.661696 0.488643
0.534251 -0.773752 0.340417
0.476183 -0.854835 0.20617
0.403089 -0.910702 0.0902345
0.321345 -0.946942 -0.00611087
0.235404 -0.968343 -0.0830426
0.148122 -0.978786 -0.141556
0.0609926 -0.981193 -0.18314
-0.0256113 -0.977481 -0.209462
-0.112055 -0.968575 -0.222049
-0.19891 -0.95453 -0.222051
-0.286351 -0.934782 -0.210204
-0.373661 -0.908511 -0.187044
-0.459062 -0.875081 -0.153285
-0.540012 -0.834411 -0.110202
-0.613871 -0.787139 -0.0597874
-0.678622 -0.734473 -0.00460418
-0.733327 -0.677841 0.0525716
-0.778155 -0.61852 0.10912
-0.814122 -0.557404 0.16281
-0.842694 -0.494951 0.211871
-0.865453 -0.431269 0.254948
-0.883828 -0.366261 0.291033
-0.898951 -0.299786 0.3194
-0.911563 -0.231811 0.339584
-0.922013 -0.162514 0.3514
-0.930305 -0.0923537 0.354971
-0.936208 -0.0220753 0.350753
-0.939402 0.0473367 0.339535
-0.939628 0.114755 0.322382
-0.936811 0.179034 0.300553
-0.931116 0.239147 0.275375
-0.922943 0.294306 0.248114
-0.912849 0.344063 0.219836
-0.901429 0.388377 0.191281
-0.889168 0.427662 0.162743
-0.876295 0.462777 0.133958
-0.862645 0.494995 0.104038
-0.847537 0.525909 0.0714176
-0.829623 0.5573 0.0337936
-0.806628 0.590935 -0.0121419
-0.774693 0.628268 -0.0716235
-0.726335 0.670065 -0.153135
-0.651264 0.718442 -0.244328
0.289854 0.336058 0.896131
0.273462 0.20386 0.940032
0.340789 0.073818 0.937237
0.444192 -0.0811532 0.892249
0.545793 -0.256824 0.797591
0.613593 -0.43205 0.660935
0.634907 -0.586083 0.503388
0.613899 -0.709692 0.345637
0.561091 -0.803094 0.200543
0.486724 -0.870389 0.0743149
0.399043 -0.916427 -0.0304395
0.304464 -0.945807 -0.11292
0.207881 -0.962644 -0.173497
0.11276 -0.970412 -0.213507
0.0211368 -0.971762 -0.235016
-0.0662798 -0.96839 -0.240472
-0.149829 -0.961032 -0.232311
-0.230444 -0.949568 -0.212643
-0.309103 -0.93323 -0.183132
-0.386297 -0.910894 -0.145079
-0.461676 -0.88143 -0.0996768
-0.534023 -0.844088 -0.0483124
-0.601572 -0.798786 0.00723957
-0.662569 -0.74619 0.0648329
-0.715804 -0.687532 0.122161
-0.760894 -0.624257 0.177039
-0.798245 -0.557671 0.227613
-0.828802 -0.488732 0.272448
-0.853731 -0.418007 0.310505
-0.87413 -0.345776 0.341079
-0.890841 -0.272191 0.363751
-0.904352 -0.19745 0.378365
-0.914811 -0.121938 0.385036
-0.922102 -0.0462971 0.384167
-0.925998 0.0285597 0.376446
-0.926315 0.101516 0.362815
-0.923052 0.171365 0.344396
-0.916468 0.236952 0.322396
-0.907084 0.29732 0.297993
-0.89561 0.351826 0.272213
-0.882829 0.400239 0.245809
-0.869435 0.442786 0.219142
-0.855887 0.480174 0.19207
-0.842266 0.513554 0.16386
-0.828154 0.544458 0.133141
-0.812496 0.574693 0.0978662
-0.793389 0.606207 0.0551939
-0.767587 0.640944 0.00107289
-0.729335 0.680586 -0.0698108
-0.670065 0.726335 -0.153135
0.284016 0.404592 0.869276
0.20386 0.273462 0.940032
0.265055 0.170354 0.949065
0.37813 0.0356333 0.925066
0.505844 -0.128562 0.852991
0.609591 -0.305566 0.731456
0.66582 -0.47225 0.577636
0.672112 -0.613487 0.414607
0.637827 -0.725251 0.259207
0.574389 -0.809686 0.120355
0.49156 -0.870841 0.00215509
0.397166 -0.912962 -0.0935894
0.297511 -0.940108 -0.166384
0.197529 -0.956015 -0.216837
0.100696 -0.963879 -0.24657
0.00894655 -0.966118 -0.257946
-0.0772253 -0.964207 -0.253657
-0.158454 -0.958673 -0.236301
-0.236015 -0.949208 -0.208088
-0.31126 -0.934861 -0.170739
-0.385069 -0.914301 -0.125604
-0.457466 -0.886148 -0.0739354
-0.527528 -0.849364 -0.0171989
-0.593648 -0.803589 0.042732
-0.654074 -0.749302 0.103604
-0.707465 -0.68769 0.163023
-0.753238 -0.620303 0.218761
-0.791589 -0.54866 0.268997
-0.823259 -0.473971 0.312404
-0.849206 -0.397063 0.348123
-0.870307 -0.318467 0.375692
-0.887168 -0.238584 0.394981
-0.900063 -0.157871 0.406157
-0.908985 -0.0769728 0.409661
-0.913782 0.00321515 0.406192
-0.914333 0.0815668 0.396663
-0.9107 0.156818 0.382144
-0.903228 0.227706 0.363772
-0.892561 0.293124 0.342657
-0.879574 0.352263 0.319781
-0.865245 0.404721 0.295893
-0.850488 0.45057 0.271397
-0.835993 0.490383 0.246252
-0.82207 0.525219 0.219877
-0.80853 0.556561 0.191099
-0.794566 0.586224 0.158132
-0.778581 0.616246 0.118543
-0.757827 0.648785 0.0691055
-0.727622 0.685952 0.00608433
-0.680586 0.729335 -0.0698108
-0.60848 0.77974 -0.147503
0.155085 0.327153 0.932159
0.170354 0.265055 0.949065
0.281395 0.163032 0.945641
0.427168 0.0206355 0.903937
0.567613 -0.150266 0.809467
0.666911 -0.326558 0.669769
0.711007 -0.486503 0.507724
0.704994 -0.619679 0.344936
0.660789 -0.724975 0.194344
0.589752 -0.805189 0.0621546
0.501106 -0.864013 -0.0487304
0.402378 -0.905176 -0.136922
0.2998 -0.932346 -0.202116
0.198262 -0.949004 -0.24512
0.101091 -0.958166 -0.267766
0.0099458 -0.962083 -0.272574
-0.0750366 -0.962068 -0.262286
-0.154853 -0.958482 -0.239441
-0.231098 -0.950847 -0.206116
-0.305366 -0.938026 -0.163885
-0.378681 -0.918481 -0.113988
-0.451106 -0.890606 -0.0576617
-0.52165 -0.853153 0.00352618
-0.588567 -0.805627 0.0674906
-0.649941 -0.748484 0.131711
-0.704302 -0.683006 0.193548
-0.750983 -0.610913 0.25062
-0.79012 -0.533916 0.301071
-0.82238 -0.453423 0.343656
-0.84859 -0.370456 0.377699
-0.869444 -0.285766 0.402996
-0.88534 -0.200008 0.419726
-0.896385 -0.113926 0.428387
-0.902507 -0.0284624 0.429733
-0.90364 0.0552168 0.424719
-0.899901 0.135782 0.414417
-0.891714 0.21187 0.399946
-0.879843 0.282244 0.382379
-0.865329 0.345949 0.362664
-0.849352 0.402436 0.341537
-0.833058 0.451642 0.319429
-0.817372 0.494029 0.296376
-0.802834 0.530577 0.27193
-0.789471 0.562725 0.245103
-0.776688 0.592291 0.214354
-0.763138 0.621353 0.177598
-0.746471 0.652153 0.132199
-0.72279 0.686958 0.0752624
-0.685952 0.727622 0.00608433
-0.628268 0.774693 -0.0716235
0.160057 0.349378 0.92321
0.073818 0.340789 0.937237
0.163032 0.281395 0.945641
0.314086 0.173996 0.933314
0.484337 0.0235059 0.874566
0.630169 -0.152164 0.761402
0.721781 -0.326996 0.610005
0.754474 -0.482116 0.445347
0.738461 -0.610715 0.285838
0.686607 -0.713225 0.141001
0.60975 -0.792448 0.0152205
0.516594 -0.851568 -0.0892307
0.414476 -0.89383 -0.171106
0.309618 -0.922584 -0.230166
0.206881 -0.941135 -0.267331
0.109428 -0.952391 -0.284563
0.0186181 -0.95851 -0.284452
-0.0657696 -0.960693 -0.269709
-0.145085 -0.959178 -0.242751
-0.221211 -0.953334 -0.205476
-0.295924 -0.941839 -0.159275
-0.3703 -0.922928 -0.105272
-0.444298 -0.894763 -0.0447018
-0.516706 -0.855912 0.0207104
-0.585505 -0.805814 0.0885893
-0.648549 -0.745001 0.156071
-0.704244 -0.674938 0.220225
-0.751893 -0.597568 0.278511
-0.791633 -0.514812 0.329069
-0.824078 -0.428267 0.370786
-0.849929 -0.339165 0.403222
-0.869693 -0.248501 0.426476
-0.883596 -0.157229 0.441064
-0.891661 -0.0664188 0.447805
-0.893884 0.0226716 0.447726
-0.890438 0.108623 0.441952
-0.881823 0.189965 0.431626
-0.86892 0.265339 0.417819
-0.852936 0.333656 0.401465
-0.835263 0.394241 0.383288
-0.817286 0.446918 0.363742
-0.800179 0.492057 0.34292
-0.78472 0.530568 0.320488
-0.771151 0.563857 0.295621
-0.759075 0.593733 0.266994
-0.747356 0.622299 0.232814
-0.733952 0.651829 0.190875
-0.715548 0.684635 0.138804
-0.686958 0.72279 0.0752624
-0.640944 0.767587 0.00107289
-0.568137 0.819052 -0.0798374
0.0134836 0.376997 0.926116
0.0356333 0.37813 0.925066
0.173996 0.314086 0.933314
0.359133 0.199944 0.911617
0.546492 0.0419616 0.836412
0.691949 -0.136988 0.70883
0.774312 -0.310375 0.55146
0.797009 -0.462613 0.388286
0.7732 -0.58945 0.233902
0.715616 -0.691986 0.0951221
0.634311 -0.772681 -0.0247816
0.537503 -0.834133 -0.123747
0.432427 -0.879109 -0.200435
0.325385 -0.91068 -0.254532
0.22128 -0.93203 -0.286977
0.123168 -0.946021 -0.299791
0.032164 -0.95477 -0.2956
-0.0522784 -0.959424 -0.27708
-0.131843 -0.960124 -0.246533
-0.208694 -0.956105 -0.205695
-0.284783 -0.945848 -0.155789
-0.361195 -0.927344 -0.0978329
-0.437723 -0.898501 -0.0330932
-0.512839 -0.857709 0.0364987
-0.584173 -0.804383 0.108214
-0.649316 -0.739202 0.178799
-0.706553 -0.663888 0.245024
-0.755175 -0.580653 0.304227
-0.79531 -0.491664 0.354609
-0.827501 -0.398755 0.395267
-0.852295 -0.303413 0.426067
-0.870032 -0.206945 0.447458
-0.880841 -0.110654 0.460298
-0.884803 -0.0159639 0.465693
-0.882156 0.075572 0.464855
-0.873482 0.162354 0.458988
-0.859784 0.24289 0.449195
-0.842438 0.315968 0.43642
-0.823056 0.380796 0.421394
-0.803274 0.437106 0.404584
-0.784529 0.485193 0.386138
-0.76785 0.525914 0.365815
-0.753707 0.560644 0.342934
-0.741896 0.591191 0.316362
-0.731468 0.619669 0.284545
-0.720624 0.648367 0.245604
-0.706481 0.679608 0.197529
-0.684635 0.715548 0.138804
-0.648785 0.757827 0.0691055
-0.590935 0.806628 -0.0121419
0.0194917 0.358555 0.933305
-0.0811532 0.444192 0.892249
0.0206355 0.427168 0.903937
0.199944 0.359133 0.911617
0.412892 0.238083 0.879111
0.609827 0.0736252 0.789107
0.750406 -0.107411 0.652191
0.823271 -0.279651 0.493984
0.837899 -0.430654 0.335354
0.808546 -0.557857 0.187213
0.747072 -0.662512 0.0544187
0.662584 -0.746556 -0.060307
0.562835 -0.81195 -0.15477
0.45504 -0.860966 -0.227323
0.345695 -0.896399 -0.277425
0.239871 -0.921336 -0.305946
0.140631 -0.938634 -0.314943
0.0489187 -0.950421 -0.307095
-0.0361063 -0.957822 -0.285084
-0.116471 -0.960917 -0.251144
-0.194653 -0.958809 -0.206872
-0.272799 -0.949774 -0.153329
-0.352 -0.931524 -0.0914274
-0.431824 -0.901677 -0.0224847
-0.510347 -0.858436 0.0513107
-0.584771 -0.801225 0.126812
-0.652374 -0.730941 0.200331
-0.711308 -0.649638 0.268349
-0.760831 -0.559876 0.328139
-0.801029 -0.464141 0.378055
-0.832334 -0.364574 0.4175
-0.855147 -0.263002 0.446714
-0.869711 -0.161108 0.466526
-0.87621 -0.0605793 0.478107
-0.874972 0.0368258 0.482772
-0.866677 0.129336 0.481812
-0.852462 0.215303 0.476396
-0.833888 0.293381 0.467503
-0.812798 0.36267 0.455883
-0.791095 0.42282 0.442031
-0.770495 0.47407 0.42614
-0.752298 0.517242 0.408055
-0.737211 0.553694 0.387224
-0.725235 0.585231 0.362683
-0.715597 0.613982 0.333088
-0.706695 0.64225 0.296813
-0.695968 0.672356 0.252122
-0.679608 0.706481 0.197529
-0.652153 0.746471 0.132199
-0.606207 0.793389 0.0551939
-0.53166 0.846467 -0.0288406
-0.155025 0.456868 0.875921
-0.128562 0.505844 0.852991
0.0235059 0.484337 0.874566
0.238083 0.412892 0.879111
0.471113 0.285006 0.83476
0.670227 0.115388 0.733131
0.802917 -0.0665677 0.592362
0.867136 -0.237783 0.437646
0.875995 -0.388586 0.285717
0.843414 -0.517501 0.144384
0.779906 -0.62566 0.0172281
0.693512 -0.7144 -0.0931384
0.591512 -0.784998 -0.184099
0.48118 -0.839174 -0.253481
0.369361 -0.879402 -0.300373
0.261464 -0.908668 -0.325515
0.160694 -0.92984 -0.331022
0.0678952 -0.945085 -0.319693
-0.0180709 -0.955545 -0.294292
-0.0996242 -0.961255 -0.257029
-0.179623 -0.961198 -0.209366
-0.260454 -0.953418 -0.152178
-0.343202 -0.935293 -0.0862501
-0.427137 -0.904094 -0.0129678
-0.50982 -0.857811 0.0651516
-0.587912 -0.795923 0.144452
-0.658314 -0.719645 0.220757
-0.718998 -0.631488 0.290282
-0.769158 -0.534476 0.350331
-0.808805 -0.431517 0.399533
-0.838265 -0.325157 0.437703
-0.857863 -0.217636 0.465517
-0.867899 -0.11105 0.484168
-0.868821 -0.0074562 0.49507
-0.861435 0.0911367 0.499624
-0.847034 0.182886 0.499085
-0.827388 0.266284 0.494491
-0.804597 0.340316 0.48663
-0.780851 0.404558 0.476029
-0.758169 0.45921 0.462932
-0.738142 0.505076 0.447263
-0.721738 0.543512 0.428591
-0.709169 0.57633 0.406108
-0.699837 0.605677 0.37866
-0.692312 0.633872 0.344832
-0.684275 0.663243 0.303112
-0.672356 0.695968 0.252122
-0.651829 0.733952 0.190875
-0.616246 0.778581 0.118543
-0.5573 0.829623 0.0337936
-0.155852 0.403708 0.901516
-0.256824 0.545793 0.797591
-0.150266 0.567613 0.809467
0.0419616 0.546492 0.836412
0.285006 0.471113 0.83476
0.529183 0.336648 0.778867
0.724061 0.163581 0.670057
0.847446 -0.0178861 0.53058
0.904645 -0.187692 0.382608
0.910177 -0.338532 0.23869
0.876671 -0.469657 0.10426
0.812999 -0.581992 -0.0178288
0.72602 -0.676264 -0.124744
0.622504 -0.753019 -0.213196
0.509857 -0.813324 -0.280269
0.395445 -0.859238 -0.32455
0.28522 -0.893585 -0.346634
0.182668 -0.919236 -0.348767
0.0885693 -0.93841 -0.333979
0.00144489 -0.95229 -0.305193
-0.0816145 -0.960894 -0.264618
-0.16394 -0.963079 -0.213548
-0.248206 -0.956611 -0.152608
-0.335448 -0.938446 -0.082425
-0.424498 -0.905418 -0.00449812
-0.512218 -0.855288 0.0782022
-0.59457 -0.787683 0.161376
-0.667982 -0.70431 0.240307
-0.730212 -0.608327 0.311012
-0.780377 -0.503378 0.370974
-0.818438 -0.39291 0.419263
-0.844689 -0.27995 0.456212
-0.859539 -0.167187 0.482951
-0.863579 -0.0571114 0.500969
-0.857772 0.0479417 0.51179
-0.843604 0.145872 0.516772
-0.823088 0.234973 0.517025
-0.798612 0.31409 0.513386
-0.772695 0.382721 0.506426
-0.747688 0.441036 0.496438
-0.725501 0.489843 0.483427
-0.707385 0.530514 0.467078
-0.693785 0.564882 0.446734
-0.684283 0.595117 0.421417
-0.6776 0.623562 0.389909
-0.671602 0.652555 0.350887
-0.663243 0.684275 0.303112
-0.648367 0.720624 0.245604
-0.621353 0.763138 0.177598
-0.574693 0.812496 0.0978662
-0.49843 0.866842 0.0123812
-0.340026 0.529851 0.776943
-0.305566 0.609591 0.731456
-0.152164 0.630169 0.761402
0.0736252 0.609827 0.789107
0.336648 0.529183 0.778867
0.582935 0.388871 0.713419
0.768895 0.214537 0.602308
0.882905 0.0353279 0.468221
0.935038 -0.132062 0.329035
0.939563 -0.282343 0.193661
0.907282 -0.415337 0.0658325
0.845268 -0.531811 -0.0519414
0.75907 -0.63195 -0.156369
0.654861 -0.715528 -0.243263
0.540229 -0.782826 -0.308765
0.423243 -0.835327 -0.350847
0.310601 -0.875576 -0.369993
0.206189 -0.90639 -0.368705
0.110722 -0.930044 -0.35037
0.0222816 -0.947782 -0.31814
-0.0626619 -0.959628 -0.274203
-0.148018 -0.964296 -0.219601
-0.236761 -0.959185 -0.154621
-0.329759 -0.940693 -0.0797184
-0.425171 -0.905107 0.00338108
-0.518881 -0.849984 0.0910471
-0.605947 -0.775298 0.178162
-0.682246 -0.683538 0.259455
-0.745345 -0.578762 0.330901
-0.794349 -0.465403 0.390397
-0.829276 -0.347526 0.437638
-0.850567 -0.228661 0.473551
-0.858963 -0.11191 0.499659
-0.855619 -5.38423e-05 0.517607
-0.842249 0.104466 0.52887
-0.821149 0.199687 0.53464
-0.795047 0.284274 0.535807
-0.766833 0.357628 0.532981
-0.73924 0.419894 0.526511
-0.714538 0.471898 0.516477
-0.694291 0.515049 0.502678
-0.679201 0.551219 0.484607
-0.669041 0.58261 0.461465
-0.662678 0.611594 0.432217
-0.658122 0.640531 0.395721
-0.652555 0.671602 0.350887
-0.64225 0.706695 0.296813
-0.622299 0.747356 0.232814
-0.586224 0.794566 0.158132
-0.525909 0.847537 0.0714176
-0.348474 0.450238 0.822102
-0.43205 0.613593 0.660935
-0.326558 0.666911 0.669769
-0.136988 0.691949 0.70883
0.115388 0.670227 0.733131
0.388871 0.582935 0.713419
0.629454 0.438236 0.641668
0.803767 0.265184 0.532575
0.909159 0.0902906 0.406543
0.958074 -0.0731307 0.277031
0.963537 -0.221527 0.150076
0.934331 -0.355287 0.0282297
0.875661 -0.475189 -0.0861027
0.79163 -0.581031 -0.189013
0.687677 -0.671826 -0.275226
0.571573 -0.746911 -0.339747
0.452237 -0.806961 -0.379862
0.337295 -0.854051 -0.396017
0.231114 -0.890843 -0.391133
0.134286 -0.919642 -0.369087
0.0443092 -0.941783 -0.333289
-0.0431215 -0.957308 -0.285836
-0.132577 -0.964737 -0.227389
-0.227276 -0.96096 -0.157802
-0.327676 -0.941614 -0.0774058
-0.430879 -0.902335 0.0116199
-0.531416 -0.840619 0.104676
-0.623241 -0.75716 0.195651
-0.701701 -0.655649 0.27882
-0.764312 -0.54133 0.350413
-0.810351 -0.41953 0.409054
-0.84011 -0.294928 0.455227
-0.854448 -0.171481 0.490421
-0.854732 -0.0525771 0.516399
-0.842941 0.0589004 0.534772
-0.821693 0.160654 0.546818
-0.794107 0.251117 0.553475
-0.763506 0.329557 0.555383
-0.733066 0.39608 0.552934
-0.70547 0.451542 0.54628
-0.682642 0.497413 0.535332
-0.665572 0.535622 0.519734
-0.654246 0.568418 0.498862
-0.647676 0.598207 0.471872
-0.64399 0.627378 0.437804
-0.640531 0.658122 0.395721
-0.633872 0.692312 0.344832
-0.619669 0.731468 0.284545
-0.592291 0.776688 0.214354
-0.544458 0.828154 0.133141
-0.466952 0.882991 0.0477815
-0.515375 0.569406 0.640441
-0.47225 0.66582 0.577636
-0.326996 0.721781 0.610005
-0.107411 0.750406 0.652191
0.163581 0.724061 0.670057
0.438236 0.629454 0.641668
0.667412 0.482524 0.567214
0.828977 0.313394 0.463229
0.926784 0.144967 0.346492
0.973905 -0.0125817 0.226609
0.981699 -0.157226 0.107454
0.956976 -0.290019 -0.00924382
0.903097 -0.412021 -0.121057
0.822598 -0.522916 -0.223366
0.720007 -0.621051 -0.309655
0.603194 -0.704668 -0.373631
0.482011 -0.773334 -0.411849
0.365122 -0.828372 -0.424835
0.257394 -0.872128 -0.416103
0.159184 -0.906895 -0.390131
0.0672332 -0.934121 -0.350568
-0.0236897 -0.953869 -0.299286
-0.11884 -0.964361 -0.236398
-0.221495 -0.961734 -0.161267
-0.331283 -0.940605 -0.0742592
-0.443685 -0.895923 0.0215902
-0.551445 -0.82549 0.120314
-0.647321 -0.731344 0.214735
-0.726344 -0.618896 0.298986
-0.786302 -0.494782 0.370027
-0.826964 -0.365188 0.427515
-0.849207 -0.235263 0.472757
-0.854618 -0.109219 0.507641
-0.845466 0.00948961 0.533944
-0.824728 0.118145 0.553052
-0.795951 0.214878 0.565942
-0.762956 0.298773 0.573266
-0.729433 0.36987 0.575433
-0.698557 0.429055 0.572652
-0.67267 0.477876 0.564933
-0.653096 0.518348 0.55207
-0.640064 0.55278 0.533623
-0.632742 0.58362 0.508945
-0.629364 0.613287 0.477263
-0.627378 0.64399 0.437804
-0.623562 0.6776 0.389909
-0.613982 0.715597 0.333088
-0.593733 0.759075 0.266994
-0.556561 0.80853 0.191099
-0.494995 0.862645 0.104038
-0.528292 0.474165 0.704326
-0.586083 0.634907 0.503388
-0.486503 0.711007 0.507724
-0.310375 0.774312 0.55146
-0.0665677 0.802917 0.592362
0.214537 0.768895 0.602308
0.482524 0.667412 0.567214
0.696847 0.520775 0.493151
0.845596 0.358008 0.395976
0.93672 0.198088 0.288646
0.982891 0.0484468 0.1777
0.993767 -0.0902598 0.0654208
0.974387 -0.219898 -0.0470598
0.926394 -0.342158 -0.15723
0.850708 -0.456993 -0.259717
0.750755 -0.562306 -0.346669
0.634326 -0.655144 -0.410386
0.512142 -0.733615 -0.446675
0.393909 -0.797908 -0.456266
0.284926 -0.849817 -0.443428
0.185164 -0.89157 -0.413301
0.0904198 -0.924746 -0.369687
-0.00556307 -0.949396 -0.314031
-0.108644 -0.963232 -0.245725
-0.22179 -0.961262 -0.163662
-0.343115 -0.936783 -0.0686266
-0.465732 -0.884238 0.0348781
-0.580213 -0.802493 0.139132
-0.678312 -0.695811 0.236094
-0.755261 -0.571781 0.320388
-0.809639 -0.438411 0.390231
-0.842117 -0.302501 0.446466
-0.854491 -0.169407 0.491067
-0.849353 -0.0433261 0.526044
-0.830056 0.0725113 0.552946
-0.800604 0.175862 0.572805
-0.76536 0.265562 0.58626
-0.728604 0.341546 0.593703
-0.694084 0.404713 0.595361
-0.664647 0.456705 0.591325
-0.642012 0.499643 0.58153
-0.626696 0.535921 0.565722
-0.618049 0.568038 0.54346
-0.614406 0.598442 0.514172