# vtk DataFile Version 2.0
tmp/0.000.00-10.000.000.001.0067.vtk
ASCII
DATASET UNSTRUCTURED_GRID
POINTS 5000 float
0.75 0.25 0
1.75 0.25 0
2.75 0.25 0
3.75 0.25 0
4.75 0.25 0
5.75 0.25 0
6.75 0.25 0
7.75 0.25 0
8.75 0.25 0
9.75 0.25 0
10.75 0.25 0
11.75 0.25 0
12.75 0.25 0
13.75 0.25 0
14.75 0.25 0
15.75 0.25 0
16.75 0.25 0
17.75 0.25 0
18.75 0.25 0
19.75 0.25 0
20.75 0.25 0
21.75 0.25 0
22.75 0.25 0
23.75 0.25 0
24.75 0.25 0
25.75 0.25 0
26.75 0.25 0
27.75 0.25 0
28.75 0.25 0
29.75 0.25 0
30.75 0.25 0
31.75 0.25 0
32.75 0.25 0
33.75 0.25 0
34.75 0.25 0
35.75 0.25 0
36.75 0.25 0
37.75 0.25 0
38.75 0.25 0
39.75 0.25 0
40.75 0.25 0
41.75 0.25 0
42.75 0.25 0
43.75 0.25 0
44.75 0.25 0
45.75 0.25 0
46.75 0.25 0
47.75 0.25 0
48.75 0.25 0
49.75 0.25 0
0.25 0.75 0
1.25 0.75 0
2.25 0.75 0
3.25 0.75 0
4.25 0.75 0
5.25 0.75 0
6.25 0.75 0
7.25 0.75 0
8.25 0.75 0
9.25 0.75 0
10.25 0.75 0
11.25 0.75 0
12.25 0.75 0
13.25 0.75 0
14.25 0.75 0
15.25 0.75 0
16.25 0.75 0
17.25 0.75 0
18.25 0.75 0
19.25 0.75 0
20.25 0.75 0
21.25 0.75 0
22.25 0.75 0
23.25 0.75 0
24.25 0.75 0
25.25 0.75 0
26.25 0.75 0
27.25 0.75 0
28.25 0.75 0
29.25 0.75 0
30.25 0.75 0
31.25 0.75 0
32.25 0.75 0
33.25 0.75 0
34.25 0.75 0
35.25 0.75 0
36.25 0.75 0
37.25 0.75 0
38.25 0.75 0
39.25 0.75 0
40.25 0.75 0
41.25 0.75 0
42.25 0.75 0
43.25 0.75 0
44.25 0.75 0
45.25 0.75 0
46.25 0.75 0
47.25 0.75 0
48.25 0.75 0
49.25 0.75 0
0.75 1.25 0
1.75 1.25 0
2.75 1.25 0
3.75 1.25 0
4.75 1.25 0
5.75 1.25 0
6.75 1.25 0
7.75 1.25 0
8.75 1.25 0
9.75 1.25 0
10.75 1.25 0
11.75 1.25 0
12.75 1.25 0
13.75 1.25 0
14.75 1.25 0
15.75 1.25 0
16.75 1.25 0
17.75 1.25 0
18.75 1.25 0
19.75 1.25 0
20.75 1.25 0
21.75 1.25 0
22.75 1.25 0
23.75 1.25 0
24.75 1.25 0
25.75 1.25 0
26.75 1.25 0
27.75 1.25 0
28.75 1.25 0
29.75 1.25 0
30.75 1.25 0
31.75 1.25 0
32.75 1.25 0
33.75 1.25 0
34.75 1.25 0
35.75 1.25 0
36.75 1.25 0
37.75 1.25 0
38.75 1.25 0
39.75 1.25 0
40.75 1.25 0
41.75 1.25 0
42.75 1.25 0
43.75 1.25 0
44.75 1.25 0
45.75 1.25 0
46.75 1.25 0
47.75 1.25 0
48.75 1.25 0
49.75 1.25 0
0.25 1.75 0
1.25 1.75 0
2.25 1.75 0
3.25 1.75 0
4.25 1.75 0
5.25 1.75 0
6.25 1.75 0
7.25 1.75 0
8.25 1.75 0
9.25 1.75 0
10.25 1.75 0
11.25 1.75 0
12.25 1.75 0
13.25 1.75 0
14.25 1.75 0
15.25 1.75 0
16.25 1.75 0
17.25 1.75 0
18.25 1.75 0
19.25 1.75 0
20.25 1.75 0
21.25 1.75 0
22.25 1.75 0
23.25 1.75 0
24.25 1.75 0
25.25 1.75 0
26.25 1.75 0
27.25 1.75 0
28.25 1.75 0
29.25 1.75 0
30.25 1.75 0
31.25 1.75 0
32.25 1.75 0
33.25 1.75 0
34.25 1.75 0
35.25 1.75 0
36.25 1.75 0
37.25 1.75 0
38.25 1.75 0
39.25 1.75 0
40.25 1.75 0
41.25 1.75 0
42.25 1.75 0
43.25 1.75 0
44.25 1.75 0
45.25 1.75 0
46.25 1.75 0
47.25 1.75 0
48.25 1.75 0
49.25 1.75 0
0.75 2.25 0
1.75 2.25 0
2.75 2.25 0
3.75 2.25 0
4.75 2.25 0
5.75 2.25 0
6.75 2.25 0
7.75 2.25 0
8.75 2.25 0
9.75 2.25 0
10.75 2.25 0
11.75 2.25 0
12.75 2.25 0
13.75 2.25 0
14.75 2.25 0
15.75 2.25 0
16.75 2.25 0
17.75 2.25 0
18.75 2.25 0
19.75 2.25 0
20.75 2.25 0
21.75 2.25 0
22.75 2.25 0
23.75 2.25 0
24.75 2.25 0
25.75 2.25 0
26.75 2.25 0
27.75 2.25 0
28.75 2.25 0
29.75 2.25 0
30.75 2.25 0
31.75 2.25 0
32.75 2.25 0
33.75 2.25 0
34.75 2.25 0
35.75 2.25 0
36.75 2.25 0
37.75 2.25 0
38.75 2.25 0
39.75 2.25 0
40.75 2.25 0
41.75 2.25 0
42.75 2.25 0
43.75 2.25 0
44.75 2.25 0
45.75 2.25 0
46.75 2.25 0
47.75 2.25 0
48.75 2.25 0
49.75 2.25 0
0.25 2.75 0
1.25 2.75 0
2.25 2.75 0
3.25 2.75 0
4.25 2.75 0
5.25 2.75 0
6.25 2.75 0
7.25 2.75 0
8.25 2.75 0
9.25 2.75 0
10.25 2.75 0
11.25 2.75 0
12.25 2.75 0
13.25 2.75 0
14.25 2.75 0
15.25 2.75 0
16.25 2.75 0
17.25 2.75 0
18.25 2.75 0
19.25 2.75 0
20.25 2.75 0
21.25 2.75 0
22.25 2.75 0
23.25 2.75 0
24.25 2.75 0
25.25 2.75 0
26.25 2.75 0
27.25 2.75 0
28.25 2.75 0
29.25 2.75 0
30.25 2.75 0
31.25 2.75 0
32.25 2.75 0
33.25 2.75 0
34.25 2.75 0
35.25 2.75 0
36.25 2.75 0
37.25 2.75 0
38.25 2.75 0
39.25 2.75 0
40.25 2.75 0
41.25 2.75 0
42.25 2.75 0
43.25 2.75 0
44.25 2.75 0
45.25 2.75 0
46.25 2.75 0
47.25 2.75 0
48.25 2.75 0
49.25 2.75 0
0.75 3.25 0
1.75 3.25 0
2.75 3.25 0
3.75 3.25 0
4.75 3.25 0
5.75 3.25 0
6.75 3.25 0
7.75 3.25 0
8.75 3.25 0
9.75 3.25 0
10.75 3.25 0
11.75 3.25 0
12.75 3.25 0
13.75 3.25 0
14.75 3.25 0
15.75 3.25 0
16.75 3.25 0
17.75 3.25 0
18.75 3.25 0
19.75 3.25 0
20.75 3.25 0
21.75 3.25 0
22.75 3.25 0
23.75 3.25 0
24.75 3.25 0
25.75 3.25 0
26.75 3.25 0
27.75 3.25 0
28.75 3.25 0
29.75 3.25 0
30.75 3.25 0
31.75 3.25 0
32.75 3.25 0
33.75 3.25 0
34.75 3.25 0
35.75 3.25 0
36.75 3.25 0
37.75 3.25 0
38.75 3.25 0
39.75 3.25 0
40.75 3.25 0
41.75 3.25 0
42.75 3.25 0
43.75 3.25 0
44.75 3.25 0
45.75 3.25 0
46.75 3.25 0
47.75 3.25 0
48.75 3.25 0
49.75 3.25 0
0.25 3.75 0
1.25 3.75 0
2.25 3.75 0
3.25 3.75 0
4.25 3.75 0
5.25 3.75 0
6.25 3.75 0
7.25 3.75 0
8.25 3.75 0
9.25 3.75 0
10.25 3.75 0
11.25 3.75 0
12.25 3.75 0
13.25 3.75 0
14.25 3.75 0
15.25 3.75 0
16.25 3.75 0
17.25 3.75 0
18.25 3.75 0
19.25 3.75 0
20.25 3.75 0
21.25 3.75 0
22.25 3.75 0
23.25 3.75 0
24.25 3.75 0
25.25 3.75 0
26.25 3.75 0
27.25 3.75 0
28.25 3.75 0
29.25 3.75 0
30.25 3.75 0
31.25 3.75 0
32.25 3.75 0
33.25 3.75 0
34.25 3.75 0
35.25 3.75 0
36.25 3.75 0
37.25 3.75 0
38.25 3.75 0
39.25 3.75 0
40.25 3.75 0
41.25 3.75 0
42.25 3.75 0
43.25 3.75 0
44.25 3.75 0
45.25 3.75 0
46.25 3.75 0
47.25 3.75 0
48.25 3.75 0
49.25 3.75 0
0.75 4.25 0
1.75 4.25 0
2.75 4.25 0
3.75 4.25 0
4.75 4.25 0
5.75 4.25 0
6.75 4.25 0
7.75 4.25 0
8.75 4.25 0
9.75 4.25 0
10.75 4.25 0
11.75 4.25 0
12.75 4.25 0
13.75 4.25 0
14.75 4.25 0
15.75 4.25 0
16.75 4.25 0
17.75 4.25 0
18.75 4.25 0
19.75 4.25 0
20.75 4.25 0
21.75 4.25 0
22.75 4.25 0
23.75 4.25 0
24.75 4.25 0
25.75 4.25 0
26.75 4.25 0
27.75 4.25 0
28.75 4.25 0
29.75 4.25 0
30.75 4.25 0
31.75 4.25 0
32.75 4.25 0
33.75 4.25 0
34.75 4.25 0
35.75 4.25 0
36.75 4.25 0
37.75 4.25 0
38.75 4.25 0
39.75 4.25 0
40.75 4.25 0
41.75 4.25 0
42.75 4.25 0
43.75 4.25 0
44.75 4.25 0
45.75 4.25 0
46.75 4.25 0
47.75 4.25 0
48.75 4.25 0
49.75 4.25 0
0.25 4.75 0
1.25 4.75 0
2.25 4.75 0
3.25 4.75 0
4.25 4.75 0
5.25 4.75 0
6.25 4.75 0
7.25 4.75 0
8.25 4.75 0
9.25 4.75 0
10.25 4.75 0
11.25 4.75 0
12.25 4.75 0
13.25 4.75 0
14.25 4.75 0
15.25 4.75 0
16.25 4.75 0
17.25 4.75 0
18.25 4.75 0
19.25 4.75 0
20.25 4.75 0
21.25 4.75 0
22.25 4.75 0
23.25 4.75 0
24.25 4.75 0
25.25 4.75 0
26.25 4.75 0
27.25 4.75 0
28.25 4.75 0
29.25 4.75 0
30.25 4.75 0
31.25 4.75 0
32.25 4.75 0
33.25 4.75 0
34.25 4.75 0
35.25 4.75 0
36.25 4.75 0
37.25 4.75 0
38.25 4.75 0
39.25 4.75 0
40.25 4.75 0
41.25 4.75 0
42.25 4.75 0
43.25 4.75 0
44.25 4.75 0
45.25 4.75 0
46.25 4.75 0
47.25 4.75 0
48.25 4.75 0
49.25 4.75 0
0.75 5.25 0
1.75 5.25 0
2.75 5.25 0
3.75 5.25 0
4.75 5.25 0
5.75 5.25 0
6.75 5.25 0
7.75 5.25 0
8.75 5.25 0
9.75 5.25 0
10.75 5.25 0
11.75 5.25 0
12.75 5.25 0
13.75 5.25 0
14.75 5.25 0
15.75 5.25 0
16.75 5.25 0
17.75 5.25 0
18.75 5.25 0
19.75 5.25 0
20.75 5.25 0
21.75 5.25 0
22.75 5.25 0
23.75 5.25 0
24.75 5.25 0
25.75 5.25 0
26.75 5.25 0
27.75 5.25 0
28.75 5.25 0
29.75 5.25 0
30.75 5.25 0
31.75 5.25 0
32.75 5.25 0
33.75 5.25 0
34.75 5.25 0
35.75 5.25 0
36.75 5.25 0
37.75 5.25 0
38.75 5.25 0
39.75 5.25 0
40.75 5.25 0
41.75 5.25 0
42.75 5.25 0
43.75 5.25 0
44.75 5.25 0
45.75 5.25 0
46.75 5.25 0
47.75 5.25 0
48.75 5.25 0
49.75 5.25 0
0.25 5.75 0
1.25 5.75 0
2.25 5.75 0
3.25 5.75 0
4.25 5.75 0
5.25 5.75 0
6.25 5.75 0
7.25 5.75 0
8.25 5.75 0
9.25 5.75 0
10.25 5.75 0
11.25 5.75 0
12.25 5.75 0
13.25 5.75 0
14.25 5.75 0
15.25 5.75 0
16.25 5.75 0
17.25 5.75 0
18.25 5.75 0
19.25 5.75 0
20.25 5.75 0
21.25 5.75 0
22.25 5.75 0
23.25 5.75 0
24.25 5.75 0
25.25 5.75 0
26.25 5.75 0
27.25 5.75 0
28.25 5.75 0
29.25 5.75 0
30.25 5.75 0
31.25 5.75 0
32.25 5.75 0
33.25 5.75 0
34.25 5.75 0
35.25 5.75 0
36.25 5.75 0
37.25 5.75 0
38.25 5.75 0
39.25 5.75 0
40.25 5.75 0
41.25 5.75 0
42.25 5.75 0
43.25 5.75 0
44.25 5.75 0
45.25 5.75 0
46.25 5.75 0
47.25 5.75 0
48.25 5.75 0
49.25 5.75 0
0.75 6.25 0
1.75 6.25 0
2.75 6.25 0
3.75 6.25 0
4.75 6.25 0
5.75 6.25 0
6.75 6.25 0
7.75 6.25 0
8.75 6.25 0
9.75 6.25 0
10.75 6.25 0
11.75 6.25 0
12.75 6.25 0
13.75 6.25 0
14.75 6.25 0
15.75 6.25 0
16.75 6.25 0
17.75 6.25 0
18.75 6.25 0
19.75 6.25 0
20.75 6.25 0
21.75 6.25 0
22.75 6.25 0
23.75 6.25 0
24.75 6.25 0
25.75 6.25 0
26.75 6.25 0
27.75 6.25 0
28.75 6.25 0
29.75 6.25 0
30.75 6.25 0
31.75 6.25 0
32.75 6.25 0
33.75 6.25 0
34.75 6.25 0
35.75 6.25 0
36.75 6.25 0
37.75 6.25 0
38.75 6.25 0
39.75 6.25 0
40.75 6.25 0
41.75 6.25 0
42.75 6.25 0
43.75 6.25 0
44.75 6.25 0
45.75 6.25 0
46.75 6.25 0
47.75 6.25 0
48.75 6.25 0
49.75 6.25 0
0.25 6.75 0
1.25 6.75 0
2.25 6.75 0
3.25 6.75 0
4.25 6.75 0
5.25 6.75 0
6.25 6.75 0
7.25 6.75 0
8.25 6.75 0
9.25 6.75 0
10.25 6.75 0
11.25 6.75 0
12.25 6.75 0
13.25 6.75 0
14.25 6.75 0
15.25 6.75 0
16.25 6.75 0
17.25 6.75 0
18.25 6.75 0
19.25 6.75 0
20.25 6.75 0
21.25 6.75 0
22.25 6.75 0
23.25 6.75 0
24.25 6.75 0
25.25 6.75 0
26.25 6.75 0
27.25 6.75 0
28.25 6.75 0
29.25 6.75 0
30.25 6.75 0
31.25 6.75 0
32.25 6.75 0
33.25 6.75 0
34.25 6.75 0
35.25 6.75 0
36.25 6.75 0
37.25 6.75 0
38.25 6.75 0
39.25 6.75 0
40.25 6.75 0
41.25 6.75 0
42.25 6.75 0
43.25 6.75 0
44.25 6.75 0
45.25 6.75 0
46.25 6.75 0
47.25 6.75 0
48.25 6.75 0
49.25 6.75 0
0.75 7.25 0
1.75 7.25 0
2.75 7.25 0
3.75 7.25 0
4.75 7.25 0
5.75 7.25 0
6.75 7.25 0
7.75 7.25 0
8.75 7.25 0
9.75 7.25 0
10.75 7.25 0
11.75 7.25 0
12.75 7.25 0
13.75 7.25 0
14.75 7.25 0
15.75 7.25 0
16.75 7.25 0
17.75 7.25 0
18.75 7.25 0
19.75 7.25 0
20.75 7.25 0
21.75 7.25 0
22.75 7.25 0
23.75 7.25 0
24.75 7.25 0
25.75 7.25 0
26.75 7.25 0
27.75 7.25 0
28.75 7.25 0
29.75 7.25 0
30.75 7.25 0
31.75 7.25 0
32.75 7.25 0
33.75 7.25 0
34.75 7.25 0
35.75 7.25 0
36.75 7.25 0
37.75 7.25 0
38.75 7.25 0
39.75 7.25 0
40.75 7.25 0
41.75 7.25 0
42.75 7.25 0
43.75 7.25 0
44.75 7.25 0
45.75 7.25 0
46.75 7.25 0
47.75 7.25 0
48.75 7.25 0
49.75 7.25 0
0.25 7.75 0
1.25 7.75 0
2.25 7.75 0
3.25 7.75 0
4.25 7.75 0
5.25 7.75 0
6.25 7.75 0
7.25 7.75 0
8.25 7.75 0
9.25 7.75 0
10.25 7.75 0
11.25 7.75 0
12.25 7.75 0
13.25 7.75 0
14.25 7.75 0
15.25 7.75 0
16.25 7.75 0
17.25 7.75 0
18.25 7.75 0
19.25 7.75 0
20.25 7.75 0
21.25 7.75 0
[...]
POINT_DATA 5000
VECTORS velocity float
0.181421 0.115864 0.976556
0.26611 0.0214274 0.963704
0.370588 -0.0965152 0.923769
0.473813 -0.237282 0.848056
0.555011 -0.391309 0.734057
0.598822 -0.543808 0.587951
0.59853 -0.680512 0.422687
0.555641 -0.791763 0.253721
0.477044 -0.873704 0.0952375
0.371982 -0.927299 -0.0417853
0.250035 -0.956541 -0.150037
0.120103 -0.966773 -0.225667
-0.0100731 -0.963401 -0.267875
-0.134181 -0.951044 -0.278408
-0.247516 -0.933077 -0.260965
-0.347067 -0.911544 -0.220528
-0.431461 -0.887341 -0.162688
-0.50076 -0.860571 -0.0930454
-0.556136 -0.830922 -0.0167565
-0.599489 -0.797997 0.0617522
-0.633074 -0.761526 0.138906
-0.659211 -0.721463 0.211973
-0.680083 -0.677984 0.278972
-0.697636 -0.63143 0.338526
-0.713531 -0.582235 0.389712
-0.729135 -0.530854 0.431922
-0.745508 -0.477727 0.464752
-0.763392 -0.423263 0.487936
-0.783183 -0.367842 0.501315
-0.804916 -0.31183 0.504848
-0.82826 -0.255593 0.498655
-0.852546 -0.199506 0.483077
-0.876835 -0.143962 0.458733
-0.900027 -0.0893853 0.42657
-0.921005 -0.0362393 0.387862
-0.938789 0.0149721 0.344166
-0.952681 0.0637223 0.297219
-0.962348 0.109512 0.248786
-0.967845 0.151953 0.200467
-0.969539 0.190876 0.153492
-0.967961 0.226449 0.108498
-0.963592 0.259275 0.0653196
-0.956626 0.290424 0.0228266
-0.946708 0.321398 -0.0211517
-0.932618 0.35407 -0.0697022
-0.911766 0.390771 -0.126414
-0.879404 0.434533 -0.1945
-0.827706 0.4891 -0.275106
-0.746196 0.556956 -0.36468
-0.629136 0.629136 -0.456481
0.115864 0.181421 0.976556
0.181958 0.0925816 0.978938
0.291638 -0.0167216 0.956382
0.412781 -0.147524 0.898804
0.520483 -0.295665 0.801049
0.595 -0.449134 0.666524
0.625441 -0.593526 0.506507
0.610273 -0.717397 0.336017
0.554655 -0.814616 0.169586
0.467009 -0.884049 0.0189654
0.356583 -0.92807 -0.107398
0.232256 -0.950992 -0.204137
0.102075 -0.95782 -0.268629
-0.0269602 -0.953333 -0.300715
-0.149097 -0.941452 -0.302387
-0.260026 -0.92491 -0.27736
-0.35702 -0.905205 -0.230521
-0.438921 -0.88281 -0.167318
-0.505965 -0.857503 -0.0932073
-0.559469 -0.828746 -0.0132089
-0.601439 -0.795989 0.068357
-0.634207 -0.758869 0.147984
-0.660136 -0.717291 0.222966
-0.681422 -0.671421 0.291303
-0.699998 -0.621613 0.351568
-0.717476 -0.568335 0.40277
-0.735124 -0.512097 0.44424
-0.753836 -0.453417 0.475547
-0.774107 -0.392799 0.496455
-0.796015 -0.330736 0.506926
-0.819228 -0.26771 0.507145
-0.843054 -0.204195 0.497559
-0.866522 -0.14066 0.478909
-0.888517 -0.0775886 0.452236
-0.907922 -0.0155097 0.418852
-0.923778 0.0449618 0.380279
-0.935421 0.103109 0.338166
-0.942576 0.158142 0.29418
-0.94539 0.209293 0.249869
-0.944374 0.255955 0.206508
-0.940261 0.297845 0.164917
-0.933799 0.335152 0.125273
-0.925504 0.368631 0.0869145
-0.915419 0.399604 0.048217
-0.902859 0.429887 0.00658124
-0.886049 0.461743 -0.0413727
-0.861499 0.497938 -0.0993829
-0.823009 0.541737 -0.170814
-0.760404 0.596197 -0.257555
-0.660537 0.660537 -0.356906
0.0925816 0.181958 0.978938
0.197268 0.0905725 0.976157
0.32896 -0.0270886 0.943955
0.461277 -0.166635 0.871468
0.569214 -0.319779 0.757454
0.635705 -0.472625 0.610331
0.65448 -0.611651 0.444454
0.62815 -0.727888 0.274968
0.564173 -0.817673 0.114544
0.471507 -0.881435 -0.027444
0.358899 -0.922121 -0.144513
0.234356 -0.943931 -0.232532
0.105081 -0.951411 -0.289439
-0.0225667 -0.948774 -0.315149
-0.14323 -0.939401 -0.311465
-0.2528 -0.925563 -0.281825
-0.348628 -0.908382 -0.23087
-0.429596 -0.888025 -0.163886
-0.495991 -0.864034 -0.0862474
-0.549202 -0.835684 -0.00296476
-0.591328 -0.802292 0.0815974
-0.624791 -0.763407 0.163844
-0.652024 -0.718896 0.240944
-0.675256 -0.66893 0.310744
-0.696399 -0.613924 0.371653
-0.716972 -0.554453 0.422531
-0.738057 -0.491193 0.462603
-0.760261 -0.424874 0.491411
-0.783697 -0.356261 0.50882
-0.808004 -0.286123 0.515038
-0.832416 -0.215211 0.510653
-0.855892 -0.144224 0.496637
-0.877268 -0.0737966 0.474294
-0.895436 -0.00452765 0.445167
-0.909498 0.0629568 0.410913
-0.918892 0.127936 0.373189
-0.92347 0.189572 0.333564
-0.923524 0.246968 0.293444
-0.919733 0.299304 0.253986
-0.913026 0.346022 0.215989
-0.904386 0.38701 0.179745
-0.894598 0.422738 0.144866
-0.884008 0.454315 0.110127
-0.872296 0.483438 0.0733946
-0.85821 0.512317 0.0317218
-0.839113 0.543645 -0.0184172
-0.81017 0.580601 -0.0807891
-0.762975 0.626599 -0.158878
-0.683877 0.683877 -0.254212
-0.556956 0.746196 -0.36468
0.0214274 0.26611 0.963704
0.0905725 0.197268 0.976157
0.224279 0.101778 0.969196
0.374993 -0.02246 0.926755
0.514892 -0.168879 0.840456
0.620203 -0.325598 0.713676
0.67783 -0.477692 0.558889
0.686124 -0.612978 0.39178
0.650902 -0.72464 0.226326
0.58088 -0.81071 0.0729924
0.484905 -0.872445 -0.0608837
0.370996 -0.912907 -0.170186
0.24632 -0.936006 -0.251435
0.117397 -0.94584 -0.302663
-0.00984085 -0.946162 -0.323544
-0.130211 -0.939942 -0.31552
-0.239606 -0.929099 -0.281717
-0.335307 -0.914453 -0.226592
-0.416155 -0.895917 -0.155395
-0.482466 -0.872819 -0.0735719
-0.535743 -0.844269 0.0137256
-0.578251 -0.809463 0.101963
-0.612583 -0.767879 0.187358
-0.641313 -0.719369 0.266881
-0.666745 -0.664144 0.338178
-0.690759 -0.602726 0.399465
-0.714727 -0.535874 0.449449
-0.739441 -0.464527 0.487281
-0.765094 -0.389753 0.512566
-0.791304 -0.312702 0.52541
-0.817214 -0.234527 0.526459
-0.841654 -0.156301 0.516902
-0.863361 -0.0789388 0.498374
-0.88118 -0.00318924 0.47277
-0.894238 0.0703025 0.442036
-0.902058 0.140878 0.407977
-0.904617 0.207772 0.372155
-0.902357 0.270103 0.335853
-0.896126 0.326982 0.300069
-0.887053 0.377696 0.265486
-0.876348 0.421912 0.232387
-0.865055 0.459862 0.200516
-0.8538 0.492435 0.168919
-0.842565 0.521183 0.135837
-0.830475 0.548237 0.0987323
-0.815471 0.576229 0.0544791
-0.79372 0.608284 -0.000419014
-0.758523 0.647925 -0.0695444
-0.698518 0.698518 -0.155384
-0.596197 0.760404 -0.257555
-0.0167216 0.291638 0.956382
0.101778 0.224279 0.969196
0.261421 0.125122 0.957081
0.427599 -0.00497358 0.903955
0.57156 -0.156988 0.805403
0.672107 -0.316344 0.669476
0.720825 -0.467959 0.511297
0.720173 -0.601182 0.346311
0.678109 -0.710888 0.186564
0.60376 -0.796142 0.0403941
0.505455 -0.858515 -0.0864123
0.390406 -0.90092 -0.18954
0.265061 -0.926909 -0.265673
0.135462 -0.940185 -0.312575
0.00735885 -0.944138 -0.329467
-0.114007 -0.941427 -0.317362
-0.224337 -0.933682 -0.279125
-0.320728 -0.921464 -0.219176
-0.401943 -0.904444 -0.142906
-0.468373 -0.881754 -0.0560101
-0.521725 -0.852351 0.0360819
-0.564536 -0.815334 0.128565
-0.599675 -0.770144 0.21741
-0.629919 -0.71665 0.299358
-0.657656 -0.655152 0.371838
-0.684695 -0.58635 0.432881
-0.712149 -0.511281 0.481077
-0.740384 -0.431275 0.515591
-0.769044 -0.347874 0.536242
-0.797173 -0.26272 0.543593
-0.823442 -0.177387 0.53896
-0.846419 -0.0932173 0.524296
-0.864839 -0.0112301 0.501923
-0.877802 0.0678415 0.474196
-0.884874 0.143399 0.443209
-0.886134 0.214805 0.410639
-0.882158 0.281292 0.37772
-0.873956 0.342003 0.345305
-0.862848 0.396163 0.313925
-0.850269 0.443298 0.283776
-0.837522 0.483442 0.254636
-0.825511 0.517283 0.22572
-0.814506 0.546208 0.195539
-0.803943 0.572248 0.161886
-0.792183 0.597967 0.121992
-0.776095 0.626404 0.0727636
-0.750271 0.661039 0.010985
-0.705567 0.705567 -0.0659653
-0.626599 0.762975 -0.158878
-0.4891 0.827706 -0.275106
-0.0965152 0.370588 0.923769
-0.0270886 0.32896 0.943955
0.125122 0.261421 0.957081
0.306952 0.158665 0.938406
0.484442 0.0231103 0.874518
0.628976 -0.133517 0.765874
0.723211 -0.29491 0.624495
0.763523 -0.446506 0.466546
0.755582 -0.579163 0.306049
0.708478 -0.688983 0.152843
0.631119 -0.77557 0.0134406
0.531072 -0.840489 -0.107431
0.414758 -0.886357 -0.205786
0.288043 -0.916353 -0.278079
0.15671 -0.933838 -0.321542
0.0265642 -0.941914 -0.334802
-0.0968725 -0.942978 -0.318445
-0.208951 -0.938407 -0.275194
-0.306513 -0.928501 -0.209607
-0.388267 -0.912697 -0.127407
-0.454773 -0.889931 -0.034694
-0.508069 -0.85903 0.0627176
-0.551087 -0.819024 0.159696
-0.587056 -0.769344 0.251943
-0.618987 -0.709919 0.335962
-0.64931 -0.641202 0.40897
-0.679646 -0.564159 0.468834
-0.710684 -0.480249 0.51409
-0.742183 -0.391352 0.544065
-0.773116 -0.299631 0.559028
-0.801954 -0.207275 0.560274
-0.827035 -0.116214 0.550007
-0.846912 -0.0278976 0.531001
-0.860596 0.0567394 0.506118
-0.867663 0.137108 0.477873
-0.868268 0.212713 0.448179
-0.863104 0.282952 0.418317
-0.853334 0.347084 0.389042
-0.840462 0.404352 0.360726
-0.826144 0.454205 0.333443
-0.81194 0.496531 0.306937
-0.799038 0.53184 0.280509
-0.788 0.561351 0.252866
-0.778553 0.58698 0.222056
-0.769394 0.611221 0.185584
-0.757899 0.63702 0.140691
-0.73958 0.667733 0.0845833
-0.707029 0.707029 0.014851
-0.647925 0.758523 -0.0695444
-0.541737 0.823009 -0.170814
-0.147524 0.412781 0.898804
-0.02246 0.374993 0.926755
0.158665 0.306952 0.938406
0.358504 0.200323 0.911782
0.542763 0.0596795 0.837763
0.684724 -0.100692 0.721813
0.771804 -0.263667 0.578617
0.804701 -0.415676 0.423874
0.791228 -0.548939 0.26949
0.740749 -0.660398 0.123149
0.661513 -0.749866 -0.0100827
0.560194 -0.818705 -0.126115
0.442458 -0.869157 -0.220902
0.313736 -0.904023 -0.290364
0.179757 -0.926358 -0.33098
0.0466094 -0.939014 -0.340705
-0.0796999 -0.944147 -0.319741
-0.194047 -0.94287 -0.270816
-0.292995 -0.935213 -0.198822
-0.375274 -0.920365 -0.10999
-0.441742 -0.897076 -0.0109511
-0.49491 -0.864057 0.0920303
-0.538225 -0.820293 0.193476
-0.575327 -0.765235 0.288815
-0.609434 -0.698915 0.37431
-0.642899 -0.622015 0.446965
-0.676954 -0.535917 0.504506
-0.711626 -0.442698 0.545533
-0.745881 -0.345002 0.569768
-0.777969 -0.245724 0.578259
-0.805925 -0.147555 0.573334
-0.828038 -0.0525792 0.558202
-0.843169 0.0379034 0.536311
-0.85087 0.123223 0.510721
-0.851357 0.203006 0.483714
-0.845438 0.276853 0.456714
-0.834418 0.344196 0.430437
-0.819978 0.404367 0.405122
-0.803991 0.456802 0.380697
-0.788273 0.501296 0.356832
-0.774298 0.538209 0.332857
-0.762927 0.568608 0.307616
-0.754179 0.594282 0.279362
-0.747051 0.617651 0.245811
-0.739306 0.641589 0.204425
-0.727111 0.669313 0.15274
-0.704323 0.704323 0.0886446
-0.661039 0.750271 0.010985
-0.580601 0.81017 -0.0807891
-0.434533 0.879404 -0.1945
-0.237282 0.473813 0.848056
-0.166635 0.461277 0.871468
-0.00497358 0.427599 0.903955
0.200323 0.358504 0.911782
0.413268 0.247619 0.876296
0.599737 0.102388 0.79362
0.736636 -0.0608116 0.67355
0.816436 -0.224863 0.531853
0.843272 -0.377475 0.382628
0.826065 -0.512062 0.235392
0.773796 -0.626132 0.09591
0.693757 -0.719505 -0.0318453
0.591645 -0.793221 -0.144071
0.472413 -0.849096 -0.236352
0.341187 -0.889547 -0.303804
0.203837 -0.917332 -0.341983
0.0669613 -0.935058 -0.348114
-0.06277 -0.944622 -0.3221
-0.179666 -0.946844 -0.266845
-0.28004 -0.941446 -0.187767
-0.362753 -0.927356 -0.0917672
-0.429125 -0.903138 0.0139051
-0.48229 -0.867403 0.122506
-0.526299 -0.819102 0.228215
-0.56521 -0.757721 0.326184
-0.602339 -0.683449 0.412413
-0.639737 -0.597329 0.483668
-0.677941 -0.501388 0.537593
-0.716038 -0.398614 0.573059
-0.752068 -0.29263 0.590561
-0.783678 -0.187076 0.592326
-0.808792 -0.0849238 0.581931
-0.826049 0.0119323 0.563472
-0.834946 0.102603 0.540683
-0.83576 0.186786 0.516348
-0.82942 0.264303 0.492145
-0.817379 0.33481 0.468822
-0.801493 0.397792 0.446509
-0.783847 0.452733 0.424991
-0.766507 0.499383 0.403837
-0.751236 0.537996 0.382368
-0.739199 0.569498 0.359522
-0.730713 0.595557 0.33372
-0.725064 0.618515 0.302855
-0.720337 0.641197 0.264541
-0.713181 0.666708 0.216503
-0.69835 0.69835 0.156888
-0.667733 0.73958 0.0845833
-0.608284 0.79372 -0.000419014
-0.497938 0.861499 -0.0993829
-0.295665 0.520483 0.801049
-0.168879 0.514892 0.840456
0.0231103 0.484442 0.874518
0.247619 0.413268 0.876296
0.468312 0.297853 0.831846
0.652862 0.148799 0.742718
0.783045 -0.0161365 0.621756
0.856056 -0.180541 0.484328
0.878403 -0.333563 0.342262
0.859248 -0.469675 0.202727
0.806723 -0.586787 0.069854
0.72696 -0.684617 -0.0531854
0.624606 -0.763824 -0.162606
0.503921 -0.825758 -0.253354
0.369841 -0.87243 -0.319505
0.228574 -0.906285 -0.35553
0.0874378 -0.929655 -0.357905
-0.0460643 -0.944128 -0.326343
-0.165624 -0.950163 -0.264117
-0.267371 -0.947129 -0.177368
-0.35046 -0.933666 -0.073795
-0.416847 -0.908153 0.0386804
-0.470436 -0.869097 0.152838
-0.515941 -0.815407 0.26252
-0.557765 -0.746619 0.362572
-0.599091 -0.663165 0.448667
-0.641299 -0.566685 0.517303
-0.683831 -0.460223 0.566188
-0.724576 -0.348041 0.594859
-0.760712 -0.234876 0.605104
-0.789658 -0.1249 0.600699
-0.809737 -0.020919 0.58642
-0.820358 0.0757446 0.566812
-0.821873 0.164777 0.545319
-0.815359 0.246216 0.523992
-0.802439 0.319995 0.503682
-0.785152 0.385805 0.484449
-0.765791 0.443242 0.46594
-0.746674 0.492059 0.447611
-0.729848 0.532444 0.428749
-0.716785 0.565211 0.408357
-0.708108 0.591911 0.385
-0.703387 0.614805 0.356737
-0.700997 0.636686 0.3213
-0.697962 0.660601 0.276507
-0.689678 0.689678 0.220657
-0.669313 0.727111 0.15274
-0.626404 0.776095 0.0727636
-0.543645 0.839113 -0.0184172
-0.390771 0.911766 -0.126414
-0.391309 0.555011 0.734057
-0.319779 0.569214 0.757454
-0.156988 0.57156 0.805403
0.0596795 0.542763 0.837763
0.297853 0.468312 0.831846
0.520978 0.348413 0.779224
0.700265 0.196644 0.686265
0.822912 0.031315 0.567305
0.890046 -0.132413 0.436216
0.909538 -0.28521 0.302317
0.890149 -0.422514 0.170637
0.838857 -0.542576 0.0439251
0.760479 -0.64499 -0.075229
0.658522 -0.730012 -0.182845
0.536541 -0.798498 -0.272991
0.399385 -0.852016 -0.338468
0.253791 -0.892647 -0.372521
0.108021 -0.922377 -0.370881
-0.029449 -0.942389 -0.333221
-0.151681 -0.952689 -0.263394
-0.254741 -0.952225 -0.168446
-0.33827 -0.939323 -0.0569762
-0.405063 -0.912156 0.0624063
-0.459921 -0.869104 0.182022
-0.508214 -0.809001 0.295356
-0.554496 -0.731462 0.396859
-0.601405 -0.637355 0.481758
-0.649105 -0.529335 0.546322
-0.695497 -0.412005 0.588673
-0.73722 -0.29124 0.609661
-0.771003 -0.172758 0.612951
-0.794705 -0.0607116 0.603953
-0.807603 0.0428237 0.58817
-0.810158 0.137373 0.569889
-0.803646 0.223178 0.551675
-0.789904 0.300484 0.534567
-0.771178 0.369256 0.518588
-0.74998 0.429255 0.50326
-0.728874 0.480291 0.487917
-0.710193 0.522523 0.4718
-0.695717 0.556685 0.45396
-0.686379 0.584224 0.433089
-0.682036 0.607324 0.407412
-0.681331 0.628748 0.374786
-0.681593 0.651532 0.333073
-0.678695 0.678695 0.280619
-0.666708 0.713181 0.216503
-0.63702 0.757899 0.140691
-0.576229 0.815471 0.0544791
-0.461743 0.886049 -0.0413727
-0.449134 0.595 0.666524
-0.325598 0.620203 0.713676
-0.133517 0.628976 0.765874
0.102388 0.599737 0.79362
0.348413 0.520978 0.779224
0.569198 0.397094 0.719952
0.740839 0.244063 0.625772
0.855799 0.0799316 0.511096
0.918161 -0.0817705 0.387677
0.936345 -0.233255 0.262394
0.918305 -0.370898 0.138387
0.869678 -0.49332 0.0172225
0.79382 -0.600049 -0.0989494
0.692975 -0.690971 -0.205779
0.56995 -0.766425 -0.296224
0.429595 -0.827473 -0.361575
0.279383 -0.875744 -0.393722
0.128735 -0.912753 -0.387697
-0.0127804 -0.939132 -0.343319
-0.137637 -0.954306 -0.265246
-0.242016 -0.956721 -0.161596
-0.326284 -0.944341 -0.0419291
-0.394279 -0.915101 0.084468
-0.451791 -0.867187 0.209458
-0.50473 -0.799323 0.326083
-0.55739 -0.711301 0.428213
-0.611191 -0.604829 0.510517
-0.664384 -0.484281 0.569268
-0.713055 -0.356458 0.60373
-0.752993 -0.228924 0.616923
-0.781352 -0.107746 0.61472
-0.7972 0.00376152 0.603704
-0.801151 0.104717 0.58923
-0.794774 0.195512 0.574552
-0.780193 0.276749 0.560989
-0.759907 0.348732 0.548569
-0.736667 0.411445 0.536689
-0.713295 0.464806 0.524562
-0.69241 0.508983 0.511374
-0.676102 0.544663 0.496214
-0.665613 0.573212 0.477899
-0.661091 0.596736 0.454824
-0.661434 0.61797 0.424992
-0.664231 0.639967 0.386315
-0.665714 0.665714 0.33712
-0.660601 0.697962 0.276507
-0.641589 0.739306 0.204425
-0.597967 0.792183 0.121992
-0.512317 0.85821 0.0317218
-0.35407 0.932618 -0.0697022
-0.543808 0.598822 0.587951
-0.472625 0.635705 0.610331
-0.316344 0.672107 0.669476
-0.100692 0.684724 0.721813
0.148799 0.652862 0.742718
0.397094 0.569198 0.719952
0.61167 0.442305 0.655916
0.774185 0.289739 0.562752
0.881726 0.128588 0.4539
0.940398 -0.0294441 0.338799
0.958615 -0.178101 0.22212
0.943318 -0.31473 0.105341
0.89869 -0.438445 -0.0110243
0.82649 -0.548858 -0.125175
0.727531 -0.645571 -0.232242
0.603793 -0.7284 -0.323832
0.460206 -0.797815 -0.389488
0.305197 -0.854842 -0.419643
0.149558 -0.900321 -0.408722
0.00402401 -0.93413 -0.35691
-0.123405 -0.954947 -0.269902
-0.229273 -0.960614 -0.157017
-0.314944 -0.948673 -0.0288098
-0.385503 -0.91674 0.104766
-0.447725 -0.862724 0.235051
-0.507728 -0.785231 0.354435
-0.5688 -0.684524 0.455953
-0.630163 -0.563927 0.533742
-0.687519 -0.430534 0.584771
-0.735408 -0.293823 0.610609
-0.769878 -0.162445 0.617171
-0.789611 -0.0416781 0.61219
-0.795429 0.066782 0.602356
-0.789328 0.163368 0.591839
-0.773841 0.249078 0.582349
-0.751797 0.324626 0.573951
-0.726229 0.390289 0.565921
-0.700236 0.446141 0.557339
-0.676735 0.492401 0.547331
-0.658127 0.529734 0.535024
-0.64597 0.559452 0.519362
-0.640698 0.583595 0.498921
-0.64146 0.604863 0.471879
-0.646069 0.626335 0.436234
-0.65103 0.65103 0.390281
-0.651532 0.681593 0.333073
-0.641197 0.720337 0.264541
-0.611221 0.769394 0.185584
-0.548237 0.830475 0.0987323
-0.429887 0.902859 0.00658124
-0.593526 0.625441 0.506507
-0.477692 0.67783 0.558889
-0.29491 0.723211 0.624495
-0.0608116 0.736636 0.67355
0.196644 0.700265 0.686265
0.442305 0.61167 0.655916
0.647826 0.483129 0.588989
0.800435 0.332898 0.49848
0.900981 0.176638 0.396273
0.956847 0.0241724 0.289584
0.976139 -0.119749 0.181142
0.96472 -0.253537 0.0709564
0.925278 -0.37702 -0.0414407
0.85783 -0.490148 -0.154541
0.761565 -0.592407 -0.262818
0.637518 -0.683105 -0.356284
0.490781 -0.761989 -0.422502
0.330947 -0.829238 -0.450377
0.170362 -0.884724 -0.433866
0.0209199 -0.927284 -0.373775
-0.109101 -0.954642 -0.277047
-0.21693 -0.963914 -0.154308
-0.305227 -0.952126 -0.0171228
-0.380454 -0.916471 0.123838
-0.450178 -0.854491 0.259203
-0.520012 -0.764792 0.380369
-0.59103 -0.648805 0.479307
-0.659124 -0.512777 0.550104
-0.717359 -0.36763 0.591815
-0.760041 -0.225211 0.609605
-0.785075 -0.0937741 0.612261
-0.793494 0.0234834 0.608125
-0.787916 0.126819 0.602582
-0.771466 0.217656 0.597885
-0.74742 0.29721 0.594163
-0.719163 0.366131 0.590553
-0.690112 0.424699 0.585983
-0.663504 0.473218 0.579506
-0.642068 0.512363 0.570291
-0.627681 0.543415 0.557419
-0.621068 0.568363 0.539666
-0.621615 0.589869 0.515412
-0.627335 0.611033 0.482793
-0.634944 0.634944 0.440105
-0.639967 0.664231 0.386315
-0.636686 0.700997 0.3213
-0.617651 0.747051 0.245811
-0.572248 0.803943 0.161886
-0.483438 0.872296 0.0733946
-0.321398 0.946708 -0.0211517
-0.680512 0.59853 0.422687
-0.611651 0.65448 0.444454
-0.467959 0.720825 0.511297
-0.263667 0.771804 0.578617
-0.0161365 0.783045 0.621756
0.244063 0.740839 0.625772
0.483129 0.647826 0.588989
0.677672 0.519226 0.520735
0.820024 0.373236 0.433885
0.913934 0.223846 0.338552
0.967559 0.0790579 0.239955
0.988579 -0.0578621 0.139149
0.98183 -0.186542 0.0348162
0.94852 -0.307843 -0.074445
0.886815 -0.422428 -0.187387
0.79407 -0.529934 -0.297696
0.670233 -0.629205 -0.393559
0.520611 -0.719062 -0.460341
0.356144 -0.798469 -0.485396
0.190839 -0.865895 -0.462392
0.0376407 -0.918764 -0.39301
-0.0952014 -0.953595 -0.285645
-0.205974 -0.966631 -0.152313
-0.298888 -0.954271 -0.00565589
-0.381752 -0.913168 0.142791
-0.462364 -0.840452 0.282596
-0.544548 -0.735172 0.40372
-0.625499 -0.60132 0.497157
-0.69701 -0.44995 0.558321
-0.750841 -0.296249 0.590318
-0.783333 -0.152734 0.602547
-0.795572 -0.0252121 0.605334
-0.791029 0.0859711 0.605708
-0.773672 0.182668 0.606683
-0.747403 0.266719 0.608481
-0.716061 0.339245 0.610057
-0.683445 0.400793 0.610138
-0.653158 0.451783 0.607682
-0.628289 0.492923 0.601897
-0.61105 0.525485 0.592016
-0.602461 0.551424 0.577037
-0.602146 0.57337 0.555578
-0.60829 0.59443 0.525962
-0.617765 0.617765 0.486552
-0.626335 0.646069 0.436234
-0.628748 0.681331 0.374786
-0.618515 0.725064 0.302855
-0.58698 0.778553 0.222056
-0.521183 0.842565 0.135837
-0.399604 0.915419 0.048217
-0.717397 0.610273 0.336017